       N       E                     dE             d eps       ncg     rms          rms(c)
DAV:   1     0.937708636181E+04    0.93771E+04   -0.35078E+05  3200   0.154E+03
DAV:   2     0.344134183324E+03   -0.90330E+04   -0.83572E+04  3072   0.344E+02
DAV:   3    -0.880046686951E+03   -0.12242E+04   -0.93567E+03  3072   0.160E+02
DAV:   4    -0.953200662185E+03   -0.73154E+02   -0.69602E+02  3520   0.484E+01
DAV:   5    -0.953936383577E+03   -0.73572E+00   -0.73409E+00  3392   0.479E+00    0.121E+02
RMM:   6    -0.850853645135E+03    0.10308E+03   -0.59958E+02  3072   0.505E+01    0.773E+01
RMM:   7    -0.871489131271E+03   -0.20635E+02   -0.56823E+01  3072   0.157E+01    0.388E+01
RMM:   8    -0.877767041166E+03   -0.62779E+01   -0.12980E+01  3072   0.388E+00    0.203E+01
RMM:   9    -0.878522561104E+03   -0.75552E+00   -0.44997E+00  3072   0.274E+00    0.875E+00
RMM:  10    -0.879812013228E+03   -0.12895E+01   -0.16331E+00  3072   0.251E+00    0.165E+01
RMM:  11    -0.878508016133E+03    0.13040E+01   -0.63884E-01  3072   0.171E+00    0.360E+00
RMM:  12    -0.878536400505E+03   -0.28384E-01   -0.11516E-01  3072   0.612E-01    0.381E+00
RMM:  13    -0.878472842450E+03    0.63558E-01   -0.36181E-02  3072   0.403E-01    0.768E-01
RMM:  14    -0.878471014545E+03    0.18279E-02   -0.48789E-03  3072   0.109E-01    0.357E-01
RMM:  15    -0.878471416560E+03   -0.40201E-03   -0.17687E-03  3072   0.674E-02    0.317E-01
RMM:  16    -0.878471119993E+03    0.29657E-03   -0.70443E-04  3074   0.493E-02    0.180E-01
RMM:  17    -0.878471165980E+03   -0.45988E-04   -0.21274E-04  3100   0.284E-02    0.138E-01
RMM:  18    -0.878471097668E+03    0.68312E-04   -0.10722E-04  3072   0.201E-02    0.731E-02
RMM:  19    -0.878471075304E+03    0.22364E-04   -0.29671E-05  3073   0.101E-02    0.470E-02
RMM:  20    -0.878471064552E+03    0.10752E-04   -0.13453E-05  3073   0.702E-03    0.284E-02
RMM:  21    -0.878471059430E+03    0.51220E-05   -0.47929E-06  3010   0.388E-03    0.213E-02
RMM:  22    -0.878471057429E+03    0.20010E-05   -0.20786E-06  2125   0.277E-03    0.761E-03
RMM:  23    -0.878471059066E+03   -0.16369E-05   -0.83483E-07  1777   0.165E-03    0.910E-03
RMM:  24    -0.878471059068E+03   -0.22992E-08   -0.40521E-07  1760   0.128E-03
      1 T=   500. E= -.91701008E+03 F= -.92392553E+03 E0= -.92395707E+03  EK= 0.69155E+01 SP= 0.00E+00 SK= 0.00E+00 mag=    282.315
       N       E                     dE             d eps       ncg     rms          rms(c)
DAV:   1    -0.878395644679E+03    0.75414E-01   -0.89979E+00  3200   0.286E+00    0.214E+00
RMM:   2    -0.878464528260E+03   -0.68884E-01   -0.11027E-01  3072   0.700E-01    0.209E+00
RMM:   3    -0.878501909667E+03   -0.37381E-01   -0.52737E-02  3072   0.425E-01    0.290E+00
RMM:   4    -0.878461068853E+03    0.40841E-01   -0.16472E-02  3072   0.274E-01    0.545E-01
RMM:   5    -0.878459923053E+03    0.11458E-02   -0.34469E-03  3157   0.866E-02    0.239E-01
RMM:   6    -0.878459627544E+03    0.29551E-03   -0.64113E-04  3072   0.460E-02    0.239E-01
RMM:   7    -0.878459445591E+03    0.18195E-03   -0.51695E-04  3072   0.422E-02    0.201E-01
RMM:   8    -0.878459270409E+03    0.17518E-03   -0.36530E-04  3072   0.300E-02    0.107E-01
RMM:   9    -0.878459253337E+03    0.17072E-04   -0.15763E-04  3072   0.219E-02    0.802E-02
RMM:  10    -0.878459229890E+03    0.23447E-04   -0.42407E-05  3076   0.116E-02    0.275E-02
RMM:  11    -0.878459228077E+03    0.18138E-05   -0.15054E-05  3152   0.567E-03    0.176E-02
RMM:  12    -0.878459226622E+03    0.14548E-05   -0.39787E-06  2728   0.321E-03    0.138E-02
RMM:  13    -0.878459226197E+03    0.42508E-06   -0.21487E-06  2186   0.249E-03
      2 T=   499. E= -.91700995E+03 F= -.92391453E+03 E0= -.92394619E+03  EK= 0.69046E+01 SP= -.38E-08 SK= 0.37E-15 mag=    282.316
       N       E                     dE             d eps       ncg     rms          rms(c)
DAV:   1    -0.878360476682E+03    0.98750E-01   -0.89670E+00  3200   0.286E+00    0.213E+00
RMM:   2    -0.878429126865E+03   -0.68650E-01   -0.10975E-01  3072   0.698E-01    0.208E+00
RMM:   3    -0.878466364854E+03   -0.37238E-01   -0.52612E-02  3072   0.425E-01    0.289E+00
RMM:   4    -0.878425702093E+03    0.40663E-01   -0.16459E-02  3072   0.274E-01    0.547E-01
RMM:   5    -0.878424545412E+03    0.11567E-02   -0.34861E-03  3164   0.869E-02    0.237E-01
RMM:   6    -0.878424250964E+03    0.29445E-03   -0.63866E-04  3072   0.458E-02    0.240E-01
RMM:   7    -0.878424063411E+03    0.18755E-03   -0.51950E-04  3072   0.423E-02    0.199E-01
RMM:   8    -0.878423894865E+03    0.16855E-03   -0.35898E-04  3072   0.298E-02    0.108E-01
RMM:   9    -0.878423875468E+03    0.19397E-04   -0.15567E-04  3072   0.218E-02    0.790E-02
RMM:  10    -0.878423853190E+03    0.22278E-04   -0.41749E-05  3076   0.115E-02    0.283E-02
RMM:  11    -0.878423851030E+03    0.21597E-05   -0.14898E-05  3153   0.567E-03    0.172E-02
RMM:  12    -0.878423849589E+03    0.14418E-05   -0.39289E-06  2742   0.319E-03    0.138E-02
RMM:  13    -0.878423849158E+03    0.43021E-06   -0.21550E-06  2192   0.251E-03
      3 T=   497. E= -.91700995E+03 F= -.92388165E+03 E0= -.92391369E+03  EK= 0.68718E+01 SP= -.12E-03 SK= 0.39E-06 mag=    282.321
       N       E                     dE             d eps       ncg     rms          rms(c)
DAV:   1    -0.878301676030E+03    0.12217E+00   -0.89091E+00  3264   0.285E+00    0.213E+00
RMM:   2    -0.878370000248E+03   -0.68324E-01   -0.10902E-01  3072   0.696E-01    0.208E+00
RMM:   3    -0.878406818420E+03   -0.36818E-01   -0.52327E-02  3072   0.424E-01    0.288E+00
RMM:   4    -0.878366493495E+03    0.40325E-01   -0.16336E-02  3072   0.273E-01    0.548E-01
RMM:   5    -0.878365326533E+03    0.11670E-02   -0.34683E-03  3166   0.868E-02    0.236E-01
RMM:   6    -0.878365033733E+03    0.29280E-03   -0.63496E-04  3072   0.456E-02    0.239E-01
RMM:   7    -0.878364849942E+03    0.18379E-03   -0.51730E-04  3072   0.422E-02    0.199E-01
RMM:   8    -0.878364684211E+03    0.16573E-03   -0.35450E-04  3072   0.297E-02    0.109E-01
RMM:   9    -0.878364662572E+03    0.21639E-04   -0.15419E-04  3072   0.217E-02    0.776E-02
RMM:  10    -0.878364641589E+03    0.20982E-04   -0.41299E-05  3078   0.113E-02    0.291E-02
RMM:  11    -0.878364639122E+03    0.24679E-05   -0.14722E-05  3141   0.570E-03    0.168E-02
RMM:  12    -0.878364637751E+03    0.13701E-05   -0.39633E-06  2766   0.319E-03    0.139E-02
RMM:  13    -0.878364637288E+03    0.46373E-06   -0.21606E-06  2209   0.252E-03
      4 T=   493. E= -.91700982E+03 F= -.92382657E+03 E0= -.92385922E+03  EK= 0.68175E+01 SP= -.75E-03 SK= 0.63E-05 mag=    282.328
       N       E                     dE             d eps       ncg     rms          rms(c)
DAV:   1    -0.878220037686E+03    0.14460E+00   -0.88235E+00  3328   0.283E+00    0.212E+00
RMM:   2    -0.878287854802E+03   -0.67817E-01   -0.10800E-01  3072   0.692E-01    0.208E+00
RMM:   3    -0.878324074010E+03   -0.36219E-01   -0.51891E-02  3072   0.422E-01    0.287E+00
RMM:   4    -0.878284238857E+03    0.39835E-01   -0.16157E-02  3072   0.272E-01    0.547E-01
RMM:   5    -0.878283073221E+03    0.11656E-02   -0.34339E-03  3166   0.865E-02    0.234E-01
RMM:   6    -0.878282780001E+03    0.29322E-03   -0.62993E-04  3072   0.453E-02    0.237E-01
RMM:   7    -0.878282605532E+03    0.17447E-03   -0.51394E-04  3072   0.421E-02    0.199E-01
RMM:   8    -0.878282440416E+03    0.16512E-03   -0.34910E-04  3072   0.296E-02    0.109E-01
RMM:   9    -0.878282417529E+03    0.22887E-04   -0.15235E-04  3072   0.215E-02    0.766E-02
RMM:  10    -0.878282397390E+03    0.20139E-04   -0.40909E-05  3077   0.113E-02    0.295E-02
RMM:  11    -0.878282394767E+03    0.26231E-05   -0.14604E-05  3135   0.572E-03    0.167E-02
RMM:  12    -0.878282393438E+03    0.13289E-05   -0.39792E-06  2778   0.320E-03    0.139E-02
RMM:  13    -0.878282392965E+03    0.47309E-06   -0.21512E-06  2196   0.252E-03
      5 T=   488. E= -.91700967E+03 F= -.92375006E+03 E0= -.92378355E+03  EK= 0.67429E+01 SP= -.25E-02 SK= 0.39E-04 mag=    282.339
       N       E                     dE             d eps       ncg     rms          rms(c)
DAV:   1    -0.878116563609E+03    0.16583E+00   -0.87120E+00  3328   0.282E+00    0.210E+00
RMM:   2    -0.878183701168E+03   -0.67138E-01   -0.10668E-01  3072   0.688E-01    0.207E+00
RMM:   3    -0.878219153534E+03   -0.35452E-01   -0.51306E-02  3072   0.420E-01    0.285E+00
RMM:   4    -0.878179951420E+03    0.39202E-01   -0.15926E-02  3072   0.270E-01    0.543E-01
RMM:   5    -0.878178799760E+03    0.11517E-02   -0.33932E-03  3169   0.861E-02    0.232E-01
RMM:   6    -0.878178504245E+03    0.29551E-03   -0.62058E-04  3072   0.449E-02    0.233E-01
RMM:   7    -0.878178342027E+03    0.16222E-03   -0.50890E-04  3072   0.418E-02    0.200E-01
RMM:   8    -0.878178176872E+03    0.16515E-03   -0.34353E-04  3072   0.295E-02    0.109E-01
RMM:   9    -0.878178152658E+03    0.24214E-04   -0.15015E-04  3072   0.214E-02    0.753E-02
RMM:  10    -0.878178133551E+03    0.19107E-04   -0.40388E-05  3078   0.112E-02    0.297E-02
RMM:  11    -0.878178130819E+03    0.27321E-05   -0.14433E-05  3132   0.572E-03    0.164E-02
RMM:  12    -0.878178129547E+03    0.12720E-05   -0.39539E-06  2779   0.318E-03    0.139E-02
RMM:  13    -0.878178129055E+03    0.49224E-06   -0.21275E-06  2153   0.251E-03
      6 T=   481. E= -.91700954E+03 F= -.92365310E+03 E0= -.92368762E+03  EK= 0.66496E+01 SP= -.62E-02 SK= 0.16E-03 mag=    282.354
       N       E                     dE             d eps       ncg     rms          rms(c)
DAV:   1    -0.877992080922E+03    0.18605E+00   -0.85773E+00  3328   0.279E+00    0.209E+00
RMM:   2    -0.878058369493E+03   -0.66289E-01   -0.10503E-01  3072   0.683E-01    0.206E+00
RMM:   3    -0.878092915182E+03   -0.34546E-01   -0.50568E-02  3072   0.417E-01    0.282E+00
RMM:   4    -0.878054472704E+03    0.38442E-01   -0.15647E-02  3072   0.268E-01    0.538E-01
RMM:   5    -0.878053347144E+03    0.11256E-02   -0.33561E-03  3177   0.855E-02    0.230E-01
RMM:   6    -0.878053047304E+03    0.29984E-03   -0.60382E-04  3072   0.442E-02    0.230E-01
RMM:   7    -0.878052899055E+03    0.14825E-03   -0.50252E-04  3072   0.415E-02    0.201E-01
RMM:   8    -0.878052733469E+03    0.16559E-03   -0.33852E-04  3072   0.294E-02    0.109E-01
RMM:   9    -0.878052708312E+03    0.25158E-04   -0.14809E-04  3072   0.212E-02    0.740E-02
RMM:  10    -0.878052690097E+03    0.18214E-04   -0.39925E-05  3081   0.111E-02    0.296E-02
RMM:  11    -0.878052687324E+03    0.27729E-05   -0.14206E-05  3126   0.571E-03    0.162E-02
RMM:  12    -0.878052686093E+03    0.12317E-05   -0.39040E-06  2779   0.317E-03    0.139E-02
RMM:  13    -0.878052685592E+03    0.50029E-06   -0.20882E-06  2115   0.248E-03
      7 T=   473. E= -.91700936E+03 F= -.92353645E+03 E0= -.92357220E+03  EK= 0.65396E+01 SP= -.13E-01 SK= 0.47E-03 mag=    282.372
       N       E                     dE             d eps       ncg     rms          rms(c)
DAV:   1    -0.877847695561E+03    0.20499E+00   -0.84215E+00  3328   0.277E+00    0.207E+00
RMM:   2    -0.877912980429E+03   -0.65285E-01   -0.10315E-01  3072   0.677E-01    0.205E+00
RMM:   3    -0.877946503626E+03   -0.33523E-01   -0.49711E-02  3072   0.414E-01    0.279E+00
RMM:   4    -0.877908935131E+03    0.37568E-01   -0.15332E-02  3072   0.265E-01    0.531E-01
RMM:   5    -0.877907843930E+03    0.10912E-02   -0.32961E-03  3181   0.847E-02    0.228E-01
RMM:   6    -0.877907540355E+03    0.30357E-03   -0.59066E-04  3072   0.437E-02    0.225E-01
RMM:   7    -0.877907407864E+03    0.13249E-03   -0.49508E-04  3072   0.411E-02    0.202E-01
RMM:   8    -0.877907241436E+03    0.16643E-03   -0.33155E-04  3072   0.292E-02    0.108E-01
RMM:   9    -0.877907215558E+03    0.25878E-04   -0.14497E-04  3072   0.210E-02    0.724E-02
RMM:  10    -0.877907198335E+03    0.17223E-04   -0.39171E-05  3084   0.109E-02    0.294E-02
RMM:  11    -0.877907195569E+03    0.27664E-05   -0.13890E-05  3118   0.567E-03    0.158E-02
RMM:  12    -0.877907194397E+03    0.11723E-05   -0.38396E-06  2778   0.314E-03    0.137E-02
RMM:  13    -0.877907193901E+03    0.49546E-06   -0.20418E-06  2040   0.245E-03
      8 T=   464. E= -.91700922E+03 F= -.92340120E+03 E0= -.92343832E+03  EK= 0.64149E+01 SP= -.24E-01 SK= 0.12E-02 mag=    282.394
       N       E                     dE             d eps       ncg     rms          rms(c)
DAV:   1    -0.877684627558E+03    0.22257E+00   -0.82479E+00  3328   0.274E+00    0.205E+00
RMM:   2    -0.877748770076E+03   -0.64143E-01   -0.10107E-01  3072   0.670E-01    0.204E+00
RMM:   3    -0.877781176589E+03   -0.32407E-01   -0.48747E-02  3072   0.410E-01    0.275E+00
RMM:   4    -0.877744582332E+03    0.36594E-01   -0.14985E-02  3072   0.262E-01    0.523E-01
RMM:   5    -0.877743532648E+03    0.10497E-02   -0.32295E-03  3185   0.838E-02    0.226E-01
RMM:   6    -0.877743225474E+03    0.30717E-03   -0.57603E-04  3072   0.431E-02    0.220E-01
RMM:   7    -0.877743109152E+03    0.11632E-03   -0.48703E-04  3072   0.408E-02    0.202E-01
RMM:   8    -0.877742941812E+03    0.16734E-03   -0.32417E-04  3072   0.291E-02    0.107E-01
RMM:   9    -0.877742915532E+03    0.26280E-04   -0.14167E-04  3072   0.207E-02    0.709E-02
RMM:  10    -0.877742899197E+03    0.16335E-04   -0.38343E-05  3084   0.108E-02    0.291E-02
RMM:  11    -0.877742896491E+03    0.27053E-05   -0.13595E-05  3115   0.563E-03    0.155E-02
RMM:  12    -0.877742895365E+03    0.11260E-05   -0.37559E-06  2757   0.310E-03    0.135E-02
RMM:  13    -0.877742894890E+03    0.47544E-06   -0.19789E-06  1975   0.242E-03
      9 T=   454. E= -.91700902E+03 F= -.92324850E+03 E0= -.92328714E+03  EK= 0.62779E+01 SP= -.41E-01 SK= 0.25E-02 mag=    282.420
       N       E                     dE             d eps       ncg     rms          rms(c)
DAV:   1    -0.877504379752E+03    0.23852E+00   -0.80596E+00  3328   0.271E+00    0.203E+00
RMM:   2    -0.877567245189E+03   -0.62865E-01   -0.98797E-02  3072   0.662E-01    0.202E+00
RMM:   3    -0.877598489458E+03   -0.31244E-01   -0.47678E-02  3072   0.406E-01    0.271E+00
RMM:   4    -0.877562940236E+03    0.35549E-01   -0.14613E-02  3072   0.259E-01    0.513E-01
RMM:   5    -0.877561939731E+03    0.10005E-02   -0.31652E-03  3194   0.828E-02    0.224E-01
RMM:   6    -0.877561629015E+03    0.31072E-03   -0.55730E-04  3072   0.423E-02    0.215E-01
RMM:   7    -0.877561527359E+03    0.10166E-03   -0.47771E-04  3072   0.403E-02    0.203E-01
RMM:   8    -0.877561359891E+03    0.16747E-03   -0.31679E-04  3072   0.288E-02    0.106E-01
RMM:   9    -0.877561333259E+03    0.26632E-04   -0.13832E-04  3072   0.204E-02    0.692E-02
RMM:  10    -0.877561317865E+03    0.15394E-04   -0.37394E-05  3084   0.107E-02    0.287E-02
RMM:  11    -0.877561315225E+03    0.26394E-05   -0.13318E-05  3117   0.558E-03    0.151E-02
RMM:  12    -0.877561314140E+03    0.10853E-05   -0.36295E-06  2736   0.305E-03    0.133E-02
RMM:  13    -0.877561313684E+03    0.45594E-06   -0.19071E-06  1928   0.237E-03
     10 T=   443. E= -.91700886E+03 F= -.92307980E+03 E0= -.92312007E+03  EK= 0.61310E+01 SP= -.65E-01 SK= 0.50E-02 mag=    282.450
       N       E                     dE             d eps       ncg     rms          rms(c)
DAV:   1    -0.877308429976E+03    0.25288E+00   -0.78600E+00  3328   0.268E+00    0.200E+00
RMM:   2    -0.877369906320E+03   -0.61476E-01   -0.96383E-02  3072   0.654E-01    0.200E+00
RMM:   3    -0.877399968408E+03   -0.30062E-01   -0.46523E-02  3072   0.401E-01    0.267E+00
RMM:   4    -0.877365514528E+03    0.34454E-01   -0.14225E-02  3072   0.256E-01    0.502E-01
RMM:   5    -0.877364566910E+03    0.94762E-03   -0.30914E-03  3201   0.817E-02    0.222E-01
RMM:   6    -0.877364254525E+03    0.31239E-03   -0.54074E-04  3072   0.416E-02    0.211E-01
RMM:   7    -0.877364164955E+03    0.89570E-04   -0.46862E-04  3072   0.399E-02    0.202E-01
RMM:   8    -0.877363998518E+03    0.16644E-03   -0.30910E-04  3072   0.286E-02    0.105E-01
RMM:   9    -0.877363971909E+03    0.26609E-04   -0.13485E-04  3072   0.202E-02    0.676E-02
RMM:  10    -0.877363957343E+03    0.14566E-04   -0.36444E-05  3083   0.106E-02    0.281E-02
RMM:  11    -0.877363954824E+03    0.25190E-05   -0.13035E-05  3122   0.551E-03    0.148E-02
RMM:  12    -0.877363953763E+03    0.10609E-05   -0.34978E-06  2698   0.299E-03    0.129E-02
RMM:  13    -0.877363953347E+03    0.41642E-06   -0.18250E-06  1892   0.232E-03
     11 T=   432. E= -.91700873E+03 F= -.92289651E+03 E0= -.92293851E+03  EK= 0.59769E+01 SP= -.98E-01 SK= 0.91E-02 mag=    282.485
       N       E                     dE             d eps       ncg     rms          rms(c)
DAV:   1    -0.877098283145E+03    0.26567E+00   -0.76524E+00  3328   0.264E+00    0.197E+00
RMM:   2    -0.877158276233E+03   -0.59993E-01   -0.93862E-02  3072   0.646E-01    0.198E+00
RMM:   3    -0.877187160734E+03   -0.28885E-01   -0.45301E-02  3072   0.396E-01    0.262E+00
RMM:   4    -0.877153835850E+03    0.33325E-01   -0.13825E-02  3072   0.252E-01    0.491E-01
RMM:   5    -0.877152942920E+03    0.89293E-03   -0.30206E-03  3211   0.805E-02    0.220E-01
RMM:   6    -0.877152630363E+03    0.31256E-03   -0.52187E-04  3072   0.408E-02    0.208E-01
RMM:   7    -0.877152548976E+03    0.81387E-04   -0.45873E-04  3072   0.394E-02    0.201E-01
RMM:   8    -0.877152385418E+03    0.16356E-03   -0.30127E-04  3072   0.283E-02    0.104E-01
RMM:   9    -0.877152358912E+03    0.26505E-04   -0.13126E-04  3072   0.199E-02    0.658E-02
RMM:  10    -0.877152345252E+03    0.13660E-04   -0.35402E-05  3081   0.104E-02    0.276E-02
RMM:  11    -0.877152342839E+03    0.24131E-05   -0.12656E-05  3120   0.544E-03    0.143E-02
RMM:  12    -0.877152341805E+03    0.10347E-05   -0.33638E-06  2659   0.294E-03    0.125E-02
RMM:  13    -0.877152341430E+03    0.37468E-06   -0.17418E-06  1864   0.227E-03
     12 T=   421. E= -.91700857E+03 F= -.92270008E+03 E0= -.92274390E+03  EK= 0.58181E+01 SP= -.14E+00 SK= 0.16E-01 mag=    282.525
       N       E                     dE             d eps       ncg     rms          rms(c)
DAV:   1    -0.876875581600E+03    0.27676E+00   -0.74402E+00  3328   0.260E+00    0.195E+00
RMM:   2    -0.876934011922E+03   -0.58430E-01   -0.91248E-02  3072   0.637E-01    0.195E+00
RMM:   3    -0.876961761987E+03   -0.27750E-01   -0.44022E-02  3072   0.391E-01    0.257E+00
RMM:   4    -0.876929571417E+03    0.32191E-01   -0.13420E-02  3072   0.248E-01    0.479E-01
RMM:   5    -0.876928732284E+03    0.83913E-03   -0.29370E-03  3219   0.792E-02    0.218E-01
RMM:   6    -0.876928422783E+03    0.30950E-03   -0.50737E-04  3072   0.401E-02    0.205E-01
RMM:   7    -0.876928344713E+03    0.78070E-04   -0.44858E-04  3072   0.390E-02    0.198E-01
RMM:   8    -0.876928186388E+03    0.15833E-03   -0.29218E-04  3072   0.279E-02    0.102E-01
RMM:   9    -0.876928160157E+03    0.26230E-04   -0.12718E-04  3072   0.196E-02    0.639E-02
RMM:  10    -0.876928147437E+03    0.12720E-04   -0.34217E-05  3081   0.102E-02    0.270E-02
RMM:  11    -0.876928145136E+03    0.23006E-05   -0.12231E-05  3117   0.535E-03    0.139E-02
RMM:  12    -0.876928144138E+03    0.99844E-06   -0.32216E-06  2624   0.288E-03
     13 T=   409. E= -.91700848E+03 F= -.92249208E+03 E0= -.92253780E+03  EK= 0.56571E+01 SP= -.20E+00 SK= 0.25E-01 mag=    282.570
       N       E                     dE             d eps       ncg     rms          rms(c)
DAV:   1    -0.876641760382E+03    0.28638E+00   -0.72256E+00  3328   0.257E+00    0.192E+00
RMM:   2    -0.876698791819E+03   -0.57031E-01   -0.88778E-02  3072   0.628E-01    0.193E+00
RMM:   3    -0.876725221264E+03   -0.26429E-01   -0.42996E-02  3072   0.387E-01    0.252E+00
RMM:   4    -0.876694242956E+03    0.30978E-01   -0.13036E-02  3072   0.245E-01    0.473E-01
RMM:   5    -0.876693427222E+03    0.81573E-03   -0.28646E-03  3226   0.782E-02    0.214E-01
RMM:   6    -0.876693131763E+03    0.29546E-03   -0.49097E-04  3072   0.393E-02    0.204E-01
RMM:   7    -0.876693049001E+03    0.82761E-04   -0.43535E-04  3072   0.385E-02    0.194E-01
RMM:   8    -0.876692900151E+03    0.14885E-03   -0.28140E-04  3072   0.273E-02    0.101E-01
RMM:   9    -0.876692873851E+03    0.26299E-04   -0.12344E-04  3072   0.194E-02    0.619E-02
RMM:  10    -0.876692862222E+03    0.11629E-04   -0.33034E-05  3083   0.100E-02    0.267E-02
RMM:  11    -0.876692859908E+03    0.23135E-05   -0.11807E-05  3113   0.526E-03    0.133E-02
RMM:  12    -0.876692858963E+03    0.94531E-06   -0.30734E-06  2576   0.281E-03
     14 T=   397. E= -.91700830E+03 F= -.92227391E+03 E0= -.92232160E+03  EK= 0.54964E+01 SP= -.27E+00 SK= 0.39E-01 mag=    282.620
       N       E                     dE             d eps       ncg     rms          rms(c)
DAV:   1    -0.876398645256E+03    0.29421E+00   -0.70138E+00  3328   0.253E+00    0.189E+00
RMM:   2    -0.876454018709E+03   -0.55373E-01   -0.86135E-02  3072   0.618E-01    0.190E+00
RMM:   3    -0.876479474468E+03   -0.25456E-01   -0.41641E-02  3072   0.381E-01    0.248E+00
RMM:   4    -0.876449576787E+03    0.29898E-01   -0.12637E-02  3072   0.241E-01    0.461E-01
RMM:   5    -0.876448812503E+03    0.76428E-03   -0.27839E-03  3235   0.768E-02    0.211E-01
RMM:   6    -0.876448524138E+03    0.28836E-03   -0.47707E-04  3072   0.387E-02    0.203E-01
RMM:   7    -0.876448434132E+03    0.90006E-04   -0.42542E-04  3072   0.381E-02    0.188E-01
RMM:   8    -0.876448296227E+03    0.13790E-03   -0.27197E-04  3072   0.268E-02    0.994E-02
RMM:   9    -0.876448269995E+03    0.26232E-04   -0.11925E-04  3072   0.191E-02    0.597E-02
RMM:  10    -0.876448259444E+03    0.10551E-04   -0.31804E-05  3087   0.980E-03    0.262E-02
RMM:  11    -0.876448257210E+03    0.22340E-05   -0.11309E-05  3098   0.516E-03    0.129E-02
RMM:  12    -0.876448256297E+03    0.91276E-06   -0.29284E-06  2523   0.274E-03
     15 T=   386. E= -.91700815E+03 F= -.92204726E+03 E0= -.92209697E+03  EK= 0.53382E+01 SP= -.36E+00 SK= 0.58E-01 mag=    282.674
       N       E                     dE             d eps       ncg     rms          rms(c)
DAV:   1    -0.876147901158E+03    0.30036E+00   -0.68066E+00  3264   0.249E+00    0.187E+00
RMM:   2    -0.876201621847E+03   -0.53721E-01   -0.83517E-02  3072   0.609E-01    0.187E+00
RMM:   3    -0.876226188834E+03   -0.24567E-01   -0.40292E-02  3072   0.374E-01    0.243E+00
RMM:   4    -0.876197321159E+03    0.28868E-01   -0.12247E-02  3072   0.238E-01    0.450E-01
RMM:   5    -0.876196601795E+03    0.71936E-03   -0.26904E-03  3237   0.755E-02    0.209E-01
RMM:   6    -0.876196323007E+03    0.27879E-03   -0.46959E-04  3072   0.383E-02    0.203E-01
RMM:   7    -0.876196222278E+03    0.10073E-03   -0.41609E-04  3072   0.377E-02    0.182E-01
RMM:   8    -0.876196097247E+03    0.12503E-03   -0.26142E-04  3072   0.262E-02    0.979E-02
RMM:   9    -0.876196070958E+03    0.26289E-04   -0.11457E-04  3072   0.188E-02    0.572E-02
RMM:  10    -0.876196061542E+03    0.94156E-05   -0.30439E-05  3088   0.955E-03    0.257E-02
RMM:  11    -0.876196059380E+03    0.21625E-05   -0.10771E-05  3077   0.505E-03    0.125E-02
RMM:  12    -0.876196058513E+03    0.86697E-06   -0.28157E-06  2480   0.269E-03
     16 T=   375. E= -.91700809E+03 F= -.92181376E+03 E0= -.92186552E+03  EK= 0.51849E+01 SP= -.46E+00 SK= 0.83E-01 mag=    282.733
       N       E                     dE             d eps       ncg     rms          rms(c)
DAV:   1    -0.875890948267E+03    0.30511E+00   -0.66073E+00  3328   0.246E+00    0.184E+00
RMM:   2    -0.875943043352E+03   -0.52095E-01   -0.80975E-02  3072   0.600E-01    0.184E+00
RMM:   3    -0.875966835081E+03   -0.23792E-01   -0.38965E-02  3072   0.368E-01    0.239E+00
RMM:   4    -0.875938920571E+03    0.27915E-01   -0.11875E-02  3072   0.234E-01    0.439E-01
RMM:   5    -0.875938241642E+03    0.67893E-03   -0.26072E-03  3241   0.742E-02    0.206E-01
RMM:   6    -0.875937972381E+03    0.26926E-03   -0.46023E-04  3072   0.378E-02    0.203E-01
RMM:   7    -0.875937858849E+03    0.11353E-03   -0.40744E-04  3072   0.373E-02    0.175E-01
RMM:   8    -0.875937747836E+03    0.11101E-03   -0.25143E-04  3072   0.256E-02    0.966E-02
RMM:   9    -0.875937721257E+03    0.26579E-04   -0.11022E-04  3072   0.185E-02    0.548E-02
RMM:  10    -0.875937712927E+03    0.83298E-05   -0.29172E-05  3089   0.929E-03    0.252E-02
RMM:  11    -0.875937710829E+03    0.20989E-05   -0.10305E-05  3062   0.495E-03    0.121E-02
RMM:  12    -0.875937709988E+03    0.84053E-06   -0.26881E-06  2432   0.263E-03
     17 T=   364. E= -.91700790E+03 F= -.92157477E+03 E0= -.92162860E+03  EK= 0.50387E+01 SP= -.59E+00 SK= 0.12E+00 mag=    282.794
       N       E                     dE             d eps       ncg     rms          rms(c)
DAV:   1    -0.875629545416E+03    0.30817E+00   -0.64184E+00  3264   0.242E+00    0.181E+00
RMM:   2    -0.875680069173E+03   -0.50524E-01   -0.78546E-02  3072   0.590E-01    0.181E+00
RMM:   3    -0.875703209023E+03   -0.23140E-01   -0.37682E-02  3072   0.362E-01    0.234E+00
RMM:   4    -0.875676154273E+03    0.27055E-01   -0.11525E-02  3072   0.231E-01    0.430E-01
RMM:   5    -0.875675509910E+03    0.64436E-03   -0.25298E-03  3246   0.729E-02    0.203E-01
RMM:   6    -0.875675249939E+03    0.25997E-03   -0.45145E-04  3072   0.373E-02    0.204E-01
RMM:   7    -0.875675123118E+03    0.12682E-03   -0.39933E-04  3072   0.369E-02    0.168E-01
RMM:   8    -0.875675026237E+03    0.96881E-04   -0.24211E-04  3072   0.250E-02    0.957E-02
RMM:   9    -0.875674999230E+03    0.27008E-04   -0.10630E-04  3072   0.182E-02    0.526E-02
RMM:  10    -0.875674991846E+03    0.73842E-05   -0.28110E-05  3095   0.905E-03    0.248E-02
RMM:  11    -0.875674989795E+03    0.20505E-05   -0.98308E-06  3042   0.486E-03    0.118E-02
RMM:  12    -0.875674988974E+03    0.82146E-06   -0.25824E-06  2383   0.258E-03
     18 T=   354. E= -.91700775E+03 F= -.92133199E+03 E0= -.92138785E+03  EK= 0.49015E+01 SP= -.73E+00 SK= 0.16E+00 mag=    282.856
       N       E                     dE             d eps       ncg     rms          rms(c)
DAV:   1    -0.875365243422E+03    0.30975E+00   -0.62425E+00  3264   0.239E+00    0.179E+00
RMM:   2    -0.875414278573E+03   -0.49035E-01   -0.76266E-02  3072   0.582E-01    0.177E+00
RMM:   3    -0.875436899073E+03   -0.22620E-01   -0.36464E-02  3072   0.356E-01    0.231E+00
RMM:   4    -0.875410592882E+03    0.26306E-01   -0.11201E-02  3072   0.227E-01    0.422E-01
RMM:   5    -0.875409976607E+03    0.61627E-03   -0.24612E-03  3254   0.718E-02    0.200E-01
RMM:   6    -0.875409725092E+03    0.25152E-03   -0.44217E-04  3072   0.368E-02    0.204E-01
RMM:   7    -0.875409585804E+03    0.13929E-03   -0.39127E-04  3072   0.365E-02    0.161E-01
RMM:   8    -0.875409502290E+03    0.83514E-04   -0.23372E-04  3072   0.244E-02    0.950E-02
RMM:   9    -0.875409474776E+03    0.27513E-04   -0.10310E-04  3072   0.180E-02    0.508E-02
RMM:  10    -0.875409468085E+03    0.66917E-05   -0.27206E-05  3095   0.884E-03    0.245E-02
RMM:  11    -0.875409466069E+03    0.20157E-05   -0.94710E-06  3033   0.479E-03    0.117E-02
RMM:  12    -0.875409465262E+03    0.80690E-06   -0.25052E-06  2328   0.254E-03
     19 T=   345. E= -.91700766E+03 F= -.92108691E+03 E0= -.92114471E+03  EK= 0.47753E+01 SP= -.90E+00 SK= 0.21E+00 mag=    282.918
       N       E                     dE             d eps       ncg     rms          rms(c)
DAV:   1    -0.875099499777E+03    0.30997E+00   -0.60822E+00  3328   0.236E+00    0.177E+00
RMM:   2    -0.875147156137E+03   -0.47656E-01   -0.74156E-02  3072   0.573E-01    0.174E+00
RMM:   3    -0.875169394820E+03   -0.22239E-01   -0.35324E-02  3072   0.351E-01    0.227E+00
RMM:   4    -0.875143709572E+03    0.25685E-01   -0.10906E-02  3072   0.224E-01    0.415E-01
RMM:   5    -0.875143113583E+03    0.59599E-03   -0.23944E-03  3257   0.708E-02    0.196E-01
RMM:   6    -0.875142870319E+03    0.24326E-03   -0.43434E-04  3072   0.364E-02    0.205E-01
RMM:   7    -0.875142719985E+03    0.15033E-03   -0.38282E-04  3072   0.361E-02    0.154E-01
RMM:   8    -0.875142648378E+03    0.71607E-04   -0.22654E-04  3072   0.239E-02    0.947E-02
RMM:   9    -0.875142620546E+03    0.27832E-04   -0.10082E-04  3072   0.179E-02    0.498E-02
RMM:  10    -0.875142614164E+03    0.63821E-05   -0.26642E-05  3096   0.871E-03    0.243E-02
RMM:  11    -0.875142612154E+03    0.20096E-05   -0.92017E-06  3025   0.475E-03    0.116E-02
RMM:  12    -0.875142611360E+03    0.79449E-06   -0.24547E-06  2297   0.252E-03
     20 T=   337. E= -.91700749E+03 F= -.92084094E+03 E0= -.92090051E+03  EK= 0.46621E+01 SP= -.11E+01 SK= 0.27E+00 mag=    282.975
       N       E                     dE             d eps       ncg     rms          rms(c)
DAV:   1    -0.874833761475E+03    0.30885E+00   -0.59401E+00  3264   0.233E+00    0.174E+00
RMM:   2    -0.874880175267E+03   -0.46414E-01   -0.72237E-02  3072   0.566E-01    0.171E+00
RMM:   3    -0.874902183024E+03   -0.22008E-01   -0.34274E-02  3072   0.346E-01    0.224E+00
RMM:   4    -0.874876971912E+03    0.25211E-01   -0.10643E-02  3072   0.222E-01    0.410E-01
RMM:   5    -0.874876388883E+03    0.58303E-03   -0.23410E-03  3262   0.699E-02    0.193E-01
RMM:   6    -0.874876152680E+03    0.23620E-03   -0.42352E-04  3072   0.358E-02    0.204E-01
RMM:   7    -0.874875993397E+03    0.15928E-03   -0.37362E-04  3072   0.357E-02    0.149E-01
RMM:   8    -0.874875931272E+03    0.62126E-04   -0.22248E-04  3072   0.235E-02    0.947E-02
RMM:   9    -0.874875903426E+03    0.27846E-04   -0.10026E-04  3072   0.179E-02    0.499E-02
RMM:  10    -0.874875896849E+03    0.65772E-05   -0.26590E-05  3097   0.868E-03    0.244E-02
RMM:  11    -0.874875894806E+03    0.20432E-05   -0.91519E-06  3024   0.476E-03    0.117E-02
RMM:  12    -0.874875894011E+03    0.79493E-06   -0.24193E-06  2263   0.251E-03
     21 T=   330. E= -.91700731E+03 F= -.92059548E+03 E0= -.92065656E+03  EK= 0.45637E+01 SP= -.13E+01 SK= 0.34E+00 mag=    283.025
       N       E                     dE             d eps       ncg     rms          rms(c)
DAV:   1    -0.874569364376E+03    0.30653E+00   -0.58182E+00  3264   0.231E+00    0.173E+00
RMM:   2    -0.874614707969E+03   -0.45344E-01   -0.70579E-02  3072   0.559E-01    0.168E+00
RMM:   3    -0.874636625096E+03   -0.21917E-01   -0.33348E-02  3072   0.341E-01    0.222E+00
RMM:   4    -0.874611735095E+03    0.24890E-01   -0.10417E-02  3072   0.219E-01    0.407E-01
RMM:   5    -0.874611154020E+03    0.58108E-03   -0.22961E-03  3265   0.693E-02    0.190E-01
RMM:   6    -0.874610925751E+03    0.22827E-03   -0.41248E-04  3072   0.353E-02    0.204E-01
RMM:   7    -0.874610758153E+03    0.16760E-03   -0.36340E-04  3072   0.352E-02    0.145E-01
RMM:   8    -0.874610703279E+03    0.54875E-04   -0.22177E-04  3072   0.233E-02    0.952E-02
RMM:   9    -0.874610675447E+03    0.27832E-04   -0.10155E-04  3072   0.180E-02    0.510E-02
RMM:  10    -0.874610668323E+03    0.71240E-05   -0.27062E-05  3096   0.876E-03    0.248E-02
RMM:  11    -0.874610666158E+03    0.21646E-05   -0.92911E-06  3031   0.482E-03    0.120E-02
RMM:  12    -0.874610665372E+03    0.78650E-06   -0.24452E-06  2256   0.253E-03
     22 T=   324. E= -.91700716E+03 F= -.92035182E+03 E0= -.92041407E+03  EK= 0.44819E+01 SP= -.16E+01 SK= 0.43E+00 mag=    283.065
       N       E                     dE             d eps       ncg     rms          rms(c)
DAV:   1    -0.874307580800E+03    0.30309E+00   -0.57191E+00  3328   0.229E+00    0.171E+00
RMM:   2    -0.874352048905E+03   -0.44468E-01   -0.69201E-02  3072   0.553E-01    0.165E+00
RMM:   3    -0.874374024761E+03   -0.21976E-01   -0.32557E-02  3072   0.337E-01    0.221E+00
RMM:   4    -0.874349290234E+03    0.24735E-01   -0.10232E-02  3072   0.217E-01    0.408E-01
RMM:   5    -0.874348698038E+03    0.59220E-03   -0.22682E-03  3270   0.690E-02    0.188E-01
RMM:   6    -0.874348480468E+03    0.21757E-03   -0.39963E-04  3072   0.348E-02    0.204E-01
RMM:   7    -0.874348301818E+03    0.17865E-03   -0.35236E-04  3072   0.347E-02    0.140E-01
RMM:   8    -0.874348253089E+03    0.48729E-04   -0.22532E-04  3072   0.232E-02    0.972E-02
RMM:   9    -0.874348224054E+03    0.29035E-04   -0.10494E-04  3072   0.183E-02    0.524E-02
RMM:  10    -0.874348216607E+03    0.74475E-05   -0.28104E-05  3093   0.890E-03    0.261E-02
RMM:  11    -0.874348214097E+03    0.25098E-05   -0.96525E-06  3038   0.496E-03    0.122E-02
RMM:  12    -0.874348213362E+03    0.73511E-06   -0.25397E-06  2284   0.258E-03
     23 T=   319. E= -.91700691E+03 F= -.92011122E+03 E0= -.92017416E+03  EK= 0.44185E+01 SP= -.18E+01 SK= 0.53E+00 mag=    283.088
       N       E                     dE             d eps       ncg     rms          rms(c)
DAV:   1    -0.874049726768E+03    0.29849E+00   -0.56453E+00  3264   0.227E+00    0.170E+00
RMM:   2    -0.874093539696E+03   -0.43813E-01   -0.68136E-02  3072   0.549E-01    0.163E+00
RMM:   3    -0.874115727243E+03   -0.22188E-01   -0.31914E-02  3072   0.334E-01    0.220E+00
RMM:   4    -0.874090973255E+03    0.24754E-01   -0.10094E-02  3072   0.216E-01    0.413E-01
RMM:   5    -0.874090353673E+03    0.61958E-03   -0.22654E-03  3280   0.692E-02    0.186E-01
RMM:   6    -0.874090151837E+03    0.20184E-03   -0.38489E-04  3072   0.341E-02    0.206E-01
RMM:   7    -0.874089955431E+03    0.19641E-03   -0.34127E-04  3072   0.342E-02    0.136E-01
RMM:   8    -0.874089913687E+03    0.41743E-04   -0.23301E-04  3072   0.233E-02    0.102E-01
RMM:   9    -0.874089880372E+03    0.33315E-04   -0.11051E-04  3072   0.189E-02    0.529E-02
RMM:  10    -0.874089873650E+03    0.67227E-05   -0.29806E-05  3095   0.907E-03    0.289E-02
RMM:  11    -0.874089870305E+03    0.33446E-05   -0.10235E-05  3033   0.522E-03    0.123E-02
RMM:  12    -0.874089869714E+03    0.59111E-06   -0.27177E-06  2338   0.267E-03
     24 T=   316. E= -.91700663E+03 F= -.91987494E+03 E0= -.91993807E+03  EK= 0.43755E+01 SP= -.21E+01 SK= 0.64E+00 mag=    283.092
       N       E                     dE             d eps       ncg     rms          rms(c)
DAV:   1    -0.873796926987E+03    0.29294E+00   -0.55994E+00  3264   0.226E+00    0.170E+00
RMM:   2    -0.873840324261E+03   -0.43397E-01   -0.67413E-02  3072   0.545E-01    0.162E+00
RMM:   3    -0.873862890872E+03   -0.22567E-01   -0.31431E-02  3072   0.331E-01    0.220E+00
RMM:   4    -0.873837929061E+03    0.24962E-01   -0.10006E-02  3072   0.215E-01    0.423E-01
RMM:   5    -0.873837261114E+03    0.66795E-03   -0.22838E-03  3292   0.697E-02    0.185E-01
RMM:   6    -0.873837082184E+03    0.17893E-03   -0.37358E-04  3072   0.336E-02    0.211E-01
RMM:   7    -0.873836858701E+03    0.22348E-03   -0.33296E-04  3072   0.339E-02    0.131E-01
RMM:   8    -0.873836827480E+03    0.31221E-04   -0.24405E-04  3072   0.235E-02    0.110E-01
RMM:   9    -0.873836784388E+03    0.43091E-04   -0.11857E-04  3072   0.197E-02    0.520E-02
RMM:  10    -0.873836780171E+03    0.42175E-05   -0.32331E-05  3095   0.925E-03    0.339E-02
RMM:  11    -0.873836775170E+03    0.50011E-05   -0.11340E-05  3028   0.568E-03    0.122E-02
RMM:  12    -0.873836774819E+03    0.35082E-06   -0.30005E-06  2425   0.277E-03
     25 T=   315. E= -.91700631E+03 F= -.91964411E+03 E0= -.91970684E+03  EK= 0.43551E+01 SP= -.25E+01 SK= 0.76E+00 mag=    283.072
       N       E                     dE             d eps       ncg     rms          rms(c)
DAV:   1    -0.873550172792E+03    0.28660E+00   -0.55841E+00  3328   0.226E+00    0.169E+00
RMM:   2    -0.873593420686E+03   -0.43248E-01   -0.67074E-02  3072   0.544E-01    0.161E+00
RMM:   3    -0.873616550699E+03   -0.23130E-01   -0.31134E-02  3072   0.329E-01    0.222E+00
RMM:   4    -0.873591174696E+03    0.25376E-01   -0.99799E-03  3072   0.214E-01    0.440E-01
RMM:   5    -0.873590431203E+03    0.74349E-03   -0.23142E-03  3298   0.708E-02    0.186E-01
RMM:   6    -0.873590283031E+03    0.14817E-03   -0.37305E-04  3072   0.336E-02    0.219E-01
RMM:   7    -0.873590023119E+03    0.25991E-03   -0.33005E-04  3072   0.340E-02    0.126E-01
RMM:   8    -0.873590009212E+03    0.13906E-04   -0.25662E-04  3072   0.239E-02    0.124E-01
RMM:   9    -0.873589947858E+03    0.61354E-04   -0.12959E-04  3072   0.207E-02    0.496E-02
RMM:  10    -0.873589948338E+03   -0.47927E-06   -0.36210E-05  3094   0.955E-03    0.413E-02
RMM:  11    -0.873589940449E+03    0.78885E-05   -0.13329E-05  3039   0.640E-03    0.119E-02
RMM:  12    -0.873589940423E+03    0.26463E-07   -0.34384E-06  2562   0.292E-03
     26 T=   315. E= -.91700591E+03 F= -.91941972E+03 E0= -.91948143E+03  EK= 0.43592E+01 SP= -.28E+01 SK= 0.90E+00 mag=    283.024
       N       E                     dE             d eps       ncg     rms          rms(c)
DAV:   1    -0.873310356059E+03    0.27958E+00   -0.56023E+00  3264   0.226E+00    0.170E+00
RMM:   2    -0.873353755996E+03   -0.43400E-01   -0.67167E-02  3072   0.544E-01    0.161E+00
RMM:   3    -0.873377645713E+03   -0.23890E-01   -0.31054E-02  3072   0.329E-01    0.224E+00
RMM:   4    -0.873351630094E+03    0.26016E-01   -0.10026E-02  3072   0.215E-01    0.464E-01
RMM:   5    -0.873350778461E+03    0.85163E-03   -0.23708E-03  3305   0.724E-02    0.189E-01
RMM:   6    -0.873350666217E+03    0.11224E-03   -0.38007E-04  3072   0.338E-02    0.231E-01
RMM:   7    -0.873350362508E+03    0.30371E-03   -0.33267E-04  3072   0.344E-02    0.122E-01
RMM:   8    -0.873350376858E+03   -0.14350E-04   -0.27059E-04  3072   0.246E-02    0.144E-01
RMM:   9    -0.873350284728E+03    0.92130E-04   -0.14520E-04  3072   0.221E-02    0.464E-02
RMM:  10    -0.873350291981E+03   -0.72536E-05   -0.42324E-05  3090   0.101E-02    0.510E-02
RMM:  11    -0.873350279623E+03    0.12358E-04   -0.16630E-05  3053   0.741E-03    0.119E-02
RMM:  12    -0.873350279966E+03   -0.34313E-06   -0.41962E-06  2646   0.313E-03
     27 T=   317. E= -.91700548E+03 F= -.91920266E+03 E0= -.91926273E+03  EK= 0.43901E+01 SP= -.32E+01 SK= 0.10E+01 mag=    282.946
       N       E                     dE             d eps       ncg     rms          rms(c)
DAV:   1    -0.873078223810E+03    0.27206E+00   -0.56570E+00  3328   0.227E+00    0.170E+00
RMM:   2    -0.873122110544E+03   -0.43887E-01   -0.67738E-02  3072   0.546E-01    0.162E+00
RMM:   3    -0.873146968285E+03   -0.24858E-01   -0.31221E-02  3072   0.330E-01    0.228E+00
RMM:   4    -0.873120069831E+03    0.26898E-01   -0.10154E-02  3072   0.216E-01    0.495E-01
RMM:   5    -0.873119066540E+03    0.10033E-02   -0.24269E-03  3296   0.746E-02    0.193E-01
RMM:   6    -0.873118996718E+03    0.69822E-04   -0.40805E-04  3072   0.350E-02    0.245E-01
RMM:   7    -0.873118643998E+03    0.35272E-03   -0.34251E-04  3072   0.352E-02    0.119E-01
RMM:   8    -0.873118701337E+03   -0.57339E-04   -0.28405E-04  3072   0.256E-02    0.170E-01
RMM:   9    -0.873118562903E+03    0.13843E-03   -0.16555E-04  3072   0.238E-02    0.441E-02
RMM:  10    -0.873118578036E+03   -0.15134E-04   -0.50837E-05  3080   0.110E-02    0.616E-02
RMM:  11    -0.873118559811E+03    0.18225E-04   -0.21097E-05  3059   0.857E-03    0.124E-02
RMM:  12    -0.873118560483E+03   -0.67144E-06   -0.54440E-06  2793   0.344E-03
     28 T=   322. E= -.91700501E+03 F= -.91899369E+03 E0= -.91905152E+03  EK= 0.44502E+01 SP= -.37E+01 SK= 0.12E+01 mag=    282.833
       N       E                     dE             d eps       ncg     rms          rms(c)
DAV:   1    -0.872854364852E+03    0.26419E+00   -0.57515E+00  3264   0.229E+00    0.172E+00
RMM:   2    -0.872899111175E+03   -0.44746E-01   -0.68818E-02  3072   0.550E-01    0.163E+00
RMM:   3    -0.872925163683E+03   -0.26053E-01   -0.31661E-02  3072   0.332E-01    0.233E+00
RMM:   4    -0.872897116065E+03    0.28048E-01   -0.10373E-02  3072   0.218E-01    0.536E-01
RMM:   5    -0.872895908842E+03    0.12072E-02   -0.25009E-03  3280   0.775E-02    0.199E-01
RMM:   6    -0.872895885685E+03    0.23157E-04   -0.45152E-04  3072   0.367E-02    0.262E-01
RMM:   7    -0.872895480040E+03    0.40565E-03   -0.35819E-04  3072   0.363E-02    0.119E-01
RMM:   8    -0.872895593841E+03   -0.11380E-03   -0.29822E-04  3072   0.269E-02    0.200E-01
RMM:   9    -0.872895395548E+03    0.19829E-03   -0.19054E-04  3072   0.255E-02    0.449E-02
RMM:  10    -0.872895417707E+03   -0.22159E-04   -0.61931E-05  3073   0.122E-02    0.713E-02
RMM:  11    -0.872895393354E+03    0.24353E-04   -0.25937E-05  3068   0.963E-03    0.142E-02
RMM:  12    -0.872895394078E+03   -0.72476E-06   -0.70906E-06  3014   0.381E-03
     29 T=   328. E= -.91700447E+03 F= -.91879343E+03 E0= -.91884841E+03  EK= 0.45420E+01 SP= -.41E+01 SK= 0.13E+01 mag=    282.681
       N       E                     dE             d eps       ncg     rms          rms(c)
DAV:   1    -0.872639265436E+03    0.25613E+00   -0.58890E+00  3328   0.232E+00    0.174E+00
RMM:   2    -0.872685291972E+03   -0.46027E-01   -0.70491E-02  3072   0.556E-01    0.166E+00
RMM:   3    -0.872712764765E+03   -0.27473E-01   -0.32421E-02  3072   0.336E-01    0.240E+00
RMM:   4    -0.872683291904E+03    0.29473E-01   -0.10694E-02  3072   0.221E-01    0.586E-01
RMM:   5    -0.872681812944E+03    0.14790E-02   -0.25846E-03  3252   0.811E-02    0.209E-01
RMM:   6    -0.872681842159E+03   -0.29215E-04   -0.51874E-04  3073   0.391E-02    0.280E-01
RMM:   7    -0.872681380497E+03    0.46166E-03   -0.37908E-04  3072   0.377E-02    0.122E-01
RMM:   8    -0.872681551738E+03   -0.17124E-03   -0.31107E-04  3072   0.283E-02    0.227E-01
RMM:   9    -0.872681293027E+03    0.25871E-03   -0.21626E-04  3072   0.271E-02    0.510E-02
RMM:  10    -0.872681317801E+03   -0.24774E-04   -0.74543E-05  3073   0.135E-02    0.775E-02
RMM:  11    -0.872681289737E+03    0.28063E-04   -0.29931E-05  3072   0.103E-02    0.182E-02
RMM:  12    -0.872681289969E+03   -0.23180E-06   -0.87699E-06  3034   0.424E-03
     30 T=   338. E= -.91700387E+03 F= -.91860240E+03 E0= -.91865397E+03  EK= 0.46683E+01 SP= -.46E+01 SK= 0.15E+01 mag=    282.486
       N       E                     dE             d eps       ncg     rms          rms(c)
DAV:   1    -0.872433275244E+03    0.24801E+00   -0.60733E+00  3328   0.236E+00    0.177E+00
RMM:   2    -0.872481043234E+03   -0.47768E-01   -0.72778E-02  3072   0.564E-01    0.171E+00
RMM:   3    -0.872510174672E+03   -0.29131E-01   -0.33519E-02  3072   0.342E-01    0.249E+00
RMM:   4    -0.872478983659E+03    0.31191E-01   -0.11124E-02  3072   0.225E-01    0.646E-01
RMM:   5    -0.872477151557E+03    0.18321E-02   -0.27165E-03  3230   0.855E-02    0.221E-01
RMM:   6    -0.872477234084E+03   -0.82528E-04   -0.59644E-04  3076   0.416E-02    0.300E-01
RMM:   7    -0.872476715296E+03    0.51879E-03   -0.40223E-04  3072   0.392E-02    0.130E-01
RMM:   8    -0.872476926332E+03   -0.21104E-03   -0.32290E-04  3072   0.296E-02    0.247E-01
RMM:   9    -0.872476626606E+03    0.29973E-03   -0.24101E-04  3072   0.282E-02    0.646E-02
RMM:  10    -0.872476645149E+03   -0.18542E-04   -0.88535E-05  3073   0.149E-02    0.787E-02
RMM:  11    -0.872476618814E+03    0.26335E-04   -0.32942E-05  3072   0.107E-02    0.258E-02
RMM:  12    -0.872476617643E+03    0.11701E-05   -0.10471E-05  3078   0.485E-03    0.180E-02
RMM:  13    -0.872476616889E+03    0.75459E-06   -0.27485E-06  2278   0.290E-03
     31 T=   349. E= -.91700324E+03 F= -.91842101E+03 E0= -.91846859E+03  EK= 0.48319E+01 SP= -.51E+01 SK= 0.17E+01 mag=    282.240
       N       E                     dE             d eps       ncg     rms          rms(c)
DAV:   1    -0.872236544586E+03    0.24007E+00   -0.63092E+00  3264   0.240E+00    0.180E+00
RMM:   2    -0.872286510949E+03   -0.49966E-01   -0.75762E-02  3072   0.576E-01    0.176E+00
RMM:   3    -0.872317590505E+03   -0.31080E-01   -0.35057E-02  3072   0.350E-01    0.259E+00
RMM:   4    -0.872284338841E+03    0.33252E-01   -0.11691E-02  3072   0.230E-01    0.716E-01
RMM:   5    -0.872282065492E+03    0.22733E-02   -0.29045E-03  3215   0.907E-02    0.237E-01
RMM:   6    -0.872282198406E+03   -0.13291E-03   -0.68064E-04  3081   0.441E-02    0.321E-01
RMM:   7    -0.872281617232E+03    0.58117E-03   -0.43068E-04  3072   0.407E-02    0.140E-01
RMM:   8    -0.872281850645E+03   -0.23341E-03   -0.33599E-04  3072   0.307E-02    0.261E-01
RMM:   9    -0.872281536017E+03    0.31463E-03   -0.26402E-04  3072   0.290E-02    0.861E-02
RMM:  10    -0.872281537493E+03   -0.14769E-05   -0.10382E-04  3072   0.165E-02    0.761E-02
RMM:  11    -0.872281518713E+03    0.18780E-04   -0.35891E-05  3072   0.109E-02    0.376E-02
RMM:  12    -0.872281514624E+03    0.40886E-05   -0.12414E-05  3075   0.575E-03    0.208E-02
RMM:  13    -0.872281515514E+03   -0.88922E-06   -0.38303E-06  2933   0.340E-03
     32 T=   364. E= -.91700258E+03 F= -.91824943E+03 E0= -.91829248E+03  EK= 0.50356E+01 SP= -.56E+01 SK= 0.18E+01 mag=    281.935
       N       E                     dE             d eps       ncg     rms          rms(c)
DAV:   1    -0.872048860413E+03    0.23265E+00   -0.65983E+00  3328   0.246E+00    0.184E+00
RMM:   2    -0.872101619942E+03   -0.52760E-01   -0.79482E-02  3072   0.590E-01    0.183E+00
RMM:   3    -0.872134816833E+03   -0.33197E-01   -0.36947E-02  3072   0.360E-01    0.271E+00
RMM:   4    -0.872099277929E+03    0.35539E-01   -0.12372E-02  3072   0.236E-01    0.800E-01
RMM:   5    -0.872096413369E+03    0.28646E-02   -0.31502E-03  3198   0.970E-02    0.259E-01
RMM:   6    -0.872096592541E+03   -0.17917E-03   -0.78513E-04  3089   0.469E-02    0.342E-01
RMM:   7    -0.872095960899E+03    0.63164E-03   -0.45607E-04  3072   0.420E-02    0.159E-01
RMM:   8    -0.872096179516E+03   -0.21862E-03   -0.34495E-04  3072   0.318E-02    0.267E-01
RMM:   9    -0.872095896237E+03    0.28328E-03   -0.29026E-04  3072   0.295E-02    0.120E-01
RMM:  10    -0.872095862334E+03    0.33903E-04   -0.12700E-04  3072   0.188E-02    0.725E-02
RMM:  11    -0.872095859265E+03    0.30688E-05   -0.42484E-05  3072   0.114E-02    0.579E-02
RMM:  12    -0.872095848054E+03    0.11211E-04   -0.17015E-05  3059   0.735E-03    0.269E-02
RMM:  13    -0.872095853912E+03   -0.58585E-05   -0.64499E-06  3070   0.441E-03    0.397E-02
RMM:  14    -0.872095848224E+03    0.56884E-05   -0.42905E-06  2963   0.405E-03    0.145E-02
RMM:  15    -0.872095851478E+03   -0.32539E-05   -0.28107E-06  2655   0.292E-03    0.256E-02
RMM:  16    -0.872095848939E+03    0.25392E-05   -0.18188E-06  1973   0.278E-03    0.750E-03
RMM:  17    -0.872095848996E+03   -0.57640E-07   -0.42826E-07  1761   0.119E-03
     33 T=   382. E= -.91700187E+03 F= -.91808756E+03 E0= -.91812546E+03  EK= 0.52822E+01 SP= -.62E+01 SK= 0.20E+01 mag=    281.539
       N       E                     dE             d eps       ncg     rms          rms(c)
DAV:   1    -0.871870262880E+03    0.22559E+00   -0.69477E+00  3264   0.252E+00    0.188E+00
RMM:   2    -0.871926290626E+03   -0.56028E-01   -0.83803E-02  3072   0.605E-01    0.191E+00
RMM:   3    -0.871962124780E+03   -0.35834E-01   -0.39038E-02  3072   0.370E-01    0.286E+00
RMM:   4    -0.871923759026E+03    0.38366E-01   -0.13167E-02  3072   0.243E-01    0.887E-01
RMM:   5    -0.871920235852E+03    0.35232E-02   -0.33887E-03  3172   0.103E-01    0.284E-01
RMM:   6    -0.871920443648E+03   -0.20780E-03   -0.92631E-04  3109   0.501E-02    0.362E-01
RMM:   7    -0.871919771120E+03    0.67253E-03   -0.47713E-04  3072   0.430E-02    0.181E-01
RMM:   8    -0.871919938212E+03   -0.16709E-03   -0.34824E-04  3072   0.324E-02    0.266E-01
RMM:   9    -0.871919731814E+03    0.20640E-03   -0.32135E-04  3072   0.299E-02    0.164E-01
RMM:  10    -0.871919642976E+03    0.88838E-04   -0.16016E-04  3072   0.219E-02    0.726E-02
RMM:  11    -0.871919667546E+03   -0.24570E-04   -0.56862E-05  3072   0.129E-02    0.896E-02
RMM:  12    -0.871919639824E+03    0.27722E-04   -0.26178E-05  3072   0.970E-03    0.374E-02
RMM:  13    -0.871919653545E+03   -0.13721E-04   -0.11573E-05  3072   0.594E-03    0.586E-02
RMM:  14    -0.871919642581E+03    0.10964E-04   -0.77602E-06  3072   0.554E-03    0.209E-02
RMM:  15    -0.871919647546E+03   -0.49651E-05   -0.49493E-06  3049   0.398E-03    0.337E-02
RMM:  16    -0.871919644218E+03    0.33280E-05   -0.28723E-06  2711   0.342E-03    0.145E-02
RMM:  17    -0.871919643459E+03    0.75910E-06   -0.85581E-07  1783   0.176E-03
     34 T=   403. E= -.91700126E+03 F= -.91793550E+03 E0= -.91796777E+03  EK= 0.55746E+01 SP= -.67E+01 SK= 0.21E+01 mag=    281.064
       N       E                     dE             d eps       ncg     rms          rms(c)
DAV:   1    -0.871700236746E+03    0.21941E+00   -0.73565E+00  3264   0.259E+00    0.194E+00
RMM:   2    -0.871760428737E+03   -0.60192E-01   -0.89159E-02  3072   0.624E-01    0.202E+00
RMM:   3    -0.871798747511E+03   -0.38319E-01   -0.41778E-02  3072   0.383E-01    0.301E+00
RMM:   4    -0.871757468638E+03    0.41279E-01   -0.14131E-02  3072   0.251E-01    0.993E-01
RMM:   5    -0.871753050543E+03    0.44181E-02   -0.36685E-03  3128   0.111E-01    0.314E-01
RMM:   6    -0.871753286535E+03   -0.23599E-03   -0.11371E-03  3146   0.543E-02    0.381E-01
RMM:   7    -0.871752584222E+03    0.70231E-03   -0.49879E-04  3072   0.438E-02    0.207E-01
RMM:   8    -0.871752699841E+03   -0.11562E-03   -0.35648E-04  3072   0.333E-02    0.268E-01
RMM:   9    -0.871752600865E+03    0.98976E-04   -0.36079E-04  3072   0.310E-02    0.218E-01
RMM:  10    -0.871752432301E+03    0.16856E-03   -0.20654E-04  3072   0.256E-02    0.800E-02
RMM:  11    -0.871752502501E+03   -0.70200E-04   -0.83408E-05  3072   0.155E-02    0.131E-01
RMM:  12    -0.871752445358E+03    0.57143E-04   -0.41244E-05  3072   0.126E-02    0.548E-02
RMM:  13    -0.871752466388E+03   -0.21030E-04   -0.19328E-05  3072   0.775E-03    0.765E-02
RMM:  14    -0.871752454031E+03    0.12357E-04   -0.12718E-05  3072   0.707E-03    0.333E-02
RMM:  15    -0.871752459664E+03   -0.56328E-05   -0.86057E-06  3072   0.541E-03    0.428E-02
RMM:  16    -0.871752458249E+03    0.14146E-05   -0.54526E-06  3057   0.456E-03    0.286E-02
RMM:  17    -0.871752454583E+03    0.36663E-05   -0.22497E-06  2413   0.294E-03    0.105E-02
RMM:  18    -0.871752454902E+03   -0.31920E-06   -0.76149E-07  1777   0.166E-03
     35 T=   428. E= -.91700064E+03 F= -.91779288E+03 E0= -.91781899E+03  EK= 0.59150E+01 SP= -.73E+01 SK= 0.22E+01 mag=    280.472
       N       E                     dE             d eps       ncg     rms          rms(c)
DAV:   1    -0.871538137188E+03    0.21432E+00   -0.78294E+00  3264   0.268E+00    0.200E+00
RMM:   2    -0.871603383008E+03   -0.65246E-01   -0.95490E-02  3072   0.646E-01    0.216E+00
RMM:   3    -0.871643985972E+03   -0.40603E-01   -0.45038E-02  3072   0.398E-01    0.318E+00
RMM:   4    -0.871599745513E+03    0.44240E-01   -0.15243E-02  3072   0.260E-01    0.111E+00
RMM:   5    -0.871594208287E+03    0.55372E-02   -0.40502E-03  3097   0.120E-01    0.348E-01
RMM:   6    -0.871594448687E+03   -0.24040E-03   -0.13501E-03  3178   0.583E-02    0.400E-01
RMM:   7    -0.871593724220E+03    0.72447E-03   -0.52035E-04  3072   0.446E-02    0.231E-01
RMM:   8    -0.871593801422E+03   -0.77202E-04   -0.37640E-04  3072   0.346E-02    0.277E-01
RMM:   9    -0.871593818831E+03   -0.17409E-04   -0.40263E-04  3072   0.326E-02    0.272E-01
RMM:  10    -0.871593556908E+03    0.26192E-03   -0.25732E-04  3072   0.289E-02    0.963E-02
RMM:  11    -0.871593686500E+03   -0.12959E-03   -0.12140E-04  3072   0.187E-02    0.177E-01
RMM:  12    -0.871593593873E+03    0.92627E-04   -0.60150E-05  3072   0.155E-02    0.783E-02
RMM:  13    -0.871593616960E+03   -0.23087E-04   -0.29398E-05  3072   0.968E-03    0.924E-02
RMM:  14    -0.871593615280E+03    0.16798E-05   -0.20241E-05  3072   0.872E-03    0.538E-02
RMM:  15    -0.871593617402E+03   -0.21225E-05   -0.14971E-05  3072   0.735E-03    0.521E-02
RMM:  16    -0.871593624798E+03   -0.73953E-05   -0.11259E-05  3072   0.631E-03    0.497E-02
RMM:  17    -0.871593613618E+03    0.11180E-04   -0.58813E-06  3051   0.486E-03    0.149E-02
RMM:  18    -0.871593614781E+03   -0.11630E-05   -0.18848E-06  2134   0.244E-03    0.179E-02
RMM:  19    -0.871593613527E+03    0.12544E-05   -0.11490E-06  1804   0.223E-03    0.720E-03
RMM:  20    -0.871593613893E+03   -0.36611E-06   -0.40638E-07  1774   0.116E-03
     36 T=   456. E= -.91700006E+03 F= -.91765911E+03 E0= -.91767862E+03  EK= 0.63050E+01 SP= -.79E+01 SK= 0.22E+01 mag=    279.734
       N       E                     dE             d eps       ncg     rms          rms(c)
DAV:   1    -0.871383096496E+03    0.21052E+00   -0.83680E+00  3264   0.277E+00    0.206E+00
RMM:   2    -0.871454565589E+03   -0.71469E-01   -0.10285E-01  3072   0.671E-01    0.232E+00
RMM:   3    -0.871496716278E+03   -0.42151E-01   -0.48762E-02  3072   0.415E-01    0.334E+00
RMM:   4    -0.871449720106E+03    0.46996E-01   -0.16473E-02  3072   0.269E-01    0.124E+00
RMM:   5    -0.871442828619E+03    0.68915E-02   -0.45457E-03  3079   0.130E-01    0.383E-01
RMM:   6    -0.871443055986E+03   -0.22737E-03   -0.15397E-03  3192   0.619E-02    0.420E-01
RMM:   7    -0.871442299226E+03    0.75676E-03   -0.54679E-04  3072   0.455E-02    0.249E-01
RMM:   8    -0.871442368793E+03   -0.69567E-04   -0.42762E-04  3072   0.372E-02    0.296E-01
RMM:   9    -0.871442452593E+03   -0.83799E-04   -0.44598E-04  3072   0.347E-02    0.305E-01
RMM:  10    -0.871442135070E+03    0.31752E-03   -0.29071E-04  3072   0.307E-02    0.121E-01
RMM:  11    -0.871442312035E+03   -0.17696E-03   -0.15735E-04  3072   0.213E-02    0.214E-01
RMM:  12    -0.871442201227E+03    0.11081E-03   -0.78064E-05  3072   0.177E-02    0.106E-01
RMM:  13    -0.871442216556E+03   -0.15329E-04   -0.39877E-05  3072   0.115E-02    0.104E-01
RMM:  14    -0.871442245542E+03   -0.28986E-04   -0.32416E-05  3072   0.106E-02    0.819E-02
RMM:  15    -0.871442236915E+03    0.86268E-05   -0.26014E-05  3072   0.990E-03    0.615E-02
RMM:  16    -0.871442261169E+03   -0.24254E-04   -0.20963E-05  3072   0.837E-03    0.736E-02
RMM:  17    -0.871442238582E+03    0.22588E-04   -0.12526E-05  3072   0.702E-03    0.232E-02
RMM:  18    -0.871442240338E+03   -0.17564E-05   -0.39906E-06  2932   0.353E-03    0.237E-02
RMM:  19    -0.871442238738E+03    0.16001E-05   -0.21485E-06  2267   0.285E-03    0.125E-02
RMM:  20    -0.871442239012E+03   -0.27446E-06   -0.83232E-07  1787   0.172E-03
     37 T=   488. E= -.91699951E+03 F= -.91753339E+03 E0= -.91754607E+03  EK= 0.67452E+01 SP= -.85E+01 SK= 0.23E+01 mag=    278.828
       N       E                     dE             d eps       ncg     rms          rms(c)
DAV:   1    -0.871233994576E+03    0.20824E+00   -0.89720E+00  3200   0.286E+00    0.213E+00
RMM:   2    -0.871312386178E+03   -0.78392E-01   -0.11108E-01  3072   0.697E-01    0.251E+00
RMM:   3    -0.871355894232E+03   -0.43508E-01   -0.52813E-02  3072   0.432E-01    0.349E+00
RMM:   4    -0.871306115115E+03    0.49779E-01   -0.17822E-02  3072   0.279E-01    0.137E+00
RMM:   5    -0.871297752235E+03    0.83629E-02   -0.51125E-03  3074   0.139E-01    0.416E-01
RMM:   6    -0.871297961040E+03   -0.20881E-03   -0.17044E-03  3189   0.652E-02    0.443E-01
RMM:   7    -0.871297181574E+03    0.77947E-03   -0.58695E-04  3072   0.470E-02    0.275E-01
RMM:   8    -0.871297215148E+03   -0.33574E-04   -0.50320E-04  3072   0.408E-02    0.316E-01
RMM:   9    -0.871297274470E+03   -0.59322E-04   -0.52519E-04  3072   0.383E-02    0.293E-01
RMM:  10    -0.871297012929E+03    0.26154E-03   -0.32579E-04  3072   0.325E-02    0.142E-01
RMM:  11    -0.871297204654E+03   -0.19172E-03   -0.16306E-04  3072   0.212E-02    0.211E-01
RMM:  12    -0.871297107895E+03    0.96759E-04   -0.94475E-05  3072   0.193E-02    0.130E-01
RMM:  13    -0.871297132502E+03   -0.24607E-04   -0.44396E-05  3072   0.119E-02    0.122E-01
RMM:  14    -0.871297201484E+03   -0.68982E-04   -0.49707E-05  3072   0.128E-02    0.122E-01
RMM:  15    -0.871297170552E+03    0.30931E-04   -0.40813E-05  3072   0.125E-02    0.696E-02
RMM:  16    -0.871297213137E+03   -0.42585E-04   -0.31017E-05  3072   0.995E-03    0.928E-02
RMM:  17    -0.871297185845E+03    0.27293E-04   -0.20838E-05  3072   0.869E-03    0.386E-02
RMM:  18    -0.871297186148E+03   -0.30384E-06   -0.73547E-06  3072   0.483E-03
     38 T=   523. E= -.91699909E+03 F= -.91741471E+03 E0= -.91742047E+03  EK= 0.72347E+01 SP= -.91E+01 SK= 0.23E+01 mag=    277.734
       N       E                     dE             d eps       ncg     rms          rms(c)
DAV:   1    -0.871089726012E+03    0.20746E+00   -0.96388E+00  3200   0.297E+00    0.220E+00
RMM:   2    -0.871174974493E+03   -0.85248E-01   -0.11994E-01  3072   0.725E-01    0.267E+00
RMM:   3    -0.871220534263E+03   -0.45560E-01   -0.56792E-02  3072   0.448E-01    0.362E+00
RMM:   4    -0.871167652516E+03    0.52882E-01   -0.19236E-02  3072   0.288E-01    0.148E+00
RMM:   5    -0.871157837473E+03    0.98150E-02   -0.57094E-03  3074   0.148E-01    0.444E-01
RMM:   6    -0.871158046928E+03   -0.20946E-03   -0.18625E-03  3184   0.683E-02    0.471E-01
RMM:   7    -0.871157310745E+03    0.73618E-03   -0.64421E-04  3072   0.488E-02    0.331E-01
RMM:   8    -0.871157185983E+03    0.12476E-03   -0.51670E-04  3072   0.421E-02    0.313E-01
RMM:   9    -0.871157559968E+03   -0.37399E-03   -0.54278E-04  3072   0.389E-02    0.394E-01
RMM:  10    -0.871157067898E+03    0.49207E-03   -0.38619E-04  3072   0.355E-02    0.159E-01
RMM:  11    -0.871157264710E+03   -0.19681E-03   -0.21401E-04  3072   0.244E-02    0.241E-01
RMM:  12    -0.871157245127E+03    0.19583E-04   -0.11667E-04  3072   0.207E-02    0.175E-01
RMM:  13    -0.871157211485E+03    0.33642E-04   -0.66059E-05  3072   0.153E-02    0.123E-01
RMM:  14    -0.871157374479E+03   -0.16299E-03   -0.82341E-05  3072   0.160E-02    0.159E-01
RMM:  15    -0.871157331721E+03    0.42758E-04   -0.71198E-05  3072   0.163E-02    0.827E-02
RMM:  16    -0.871157395619E+03   -0.63898E-04   -0.47654E-05  3072   0.119E-02    0.111E-01
RMM:  17    -0.871157380591E+03    0.15029E-04   -0.37749E-05  3072   0.109E-02    0.662E-02
RMM:  18    -0.871157375496E+03    0.50950E-05   -0.15563E-05  3072   0.702E-03    0.383E-02
RMM:  19    -0.871157385965E+03   -0.10469E-04   -0.11405E-05  3072   0.546E-03    0.490E-02
RMM:  20    -0.871157381815E+03    0.41493E-05   -0.59413E-06  3061   0.457E-03    0.270E-02
RMM:  21    -0.871157388636E+03   -0.68211E-05   -0.61796E-06  3066   0.412E-03    0.363E-02
RMM:  22    -0.871157385207E+03    0.34293E-05   -0.32292E-06  2741   0.340E-03    0.168E-02
RMM:  23    -0.871157387442E+03   -0.22351E-05   -0.17584E-06  2204   0.229E-03    0.230E-02
RMM:  24    -0.871157386427E+03    0.10156E-05   -0.12408E-06  1803   0.211E-03    0.129E-02
RMM:  25    -0.871157386256E+03    0.17060E-06   -0.62683E-07  1775   0.149E-03
     39 T=   562. E= -.91699886E+03 F= -.91730209E+03 E0= -.91730013E+03  EK= 0.77707E+01 SP= -.97E+01 SK= 0.22E+01 mag=    276.292
       N       E                     dE             d eps       ncg     rms          rms(c)
DAV:   1    -0.870949266601E+03    0.20812E+00   -0.10364E+01  3264   0.308E+00    0.227E+00
RMM:   2    -0.871044527495E+03   -0.95261E-01   -0.13027E-01  3072   0.755E-01    0.294E+00
RMM:   3    -0.871088027686E+03   -0.43500E-01   -0.61484E-02  3072   0.467E-01    0.375E+00
RMM:   4    -0.871033986787E+03    0.54041E-01   -0.20900E-02  3072   0.298E-01    0.164E+00
RMM:   5    -0.871021916988E+03    0.12070E-01   -0.65377E-03  3072   0.160E-01    0.478E-01
RMM:   6    -0.871022124489E+03   -0.20750E-03   -0.20477E-03  3177   0.720E-02    0.503E-01
RMM:   7    -0.871021482321E+03    0.64217E-03   -0.72419E-04  3072   0.513E-02    0.399E-01
RMM:   8    -0.871021100449E+03    0.38187E-03   -0.52322E-04  3072   0.432E-02    0.292E-01
RMM:   9    -0.871021716854E+03   -0.61641E-03   -0.56446E-04  3072   0.398E-02    0.454E-01
RMM:  10    -0.871021100519E+03    0.61634E-03   -0.45912E-04  3072   0.385E-02    0.192E-01
RMM:  11    -0.871021246682E+03   -0.14616E-03   -0.25348E-04  3072   0.269E-02    0.247E-01
RMM:  12    -0.871021318997E+03   -0.72315E-04   -0.13759E-04  3072   0.216E-02    0.209E-01
RMM:  13    -0.871021272742E+03    0.46255E-04   -0.82301E-05  3072   0.172E-02    0.144E-01
RMM:  14    -0.871021509136E+03   -0.23639E-03   -0.10608E-04  3072   0.178E-02    0.204E-01
RMM:  15    -0.871021493308E+03    0.15827E-04   -0.11288E-04  3102   0.194E-02    0.105E-01
RMM:  16    -0.871021603516E+03   -0.11021E-03   -0.78852E-05  3072   0.149E-02    0.147E-01
RMM:  17    -0.871021636354E+03   -0.32839E-04   -0.92203E-05  3155   0.158E-02    0.108E-01
RMM:  18    -0.871021626228E+03    0.10127E-04   -0.34796E-05  3072   0.102E-02    0.664E-02
RMM:  19    -0.871021672624E+03   -0.46396E-04   -0.37892E-05  3078   0.972E-03    0.951E-02
RMM:  20    -0.871021662488E+03    0.10136E-04   -0.28586E-05  3080   0.897E-03    0.487E-02
RMM:  21    -0.871021688882E+03   -0.26394E-04   -0.28268E-05  3103   0.823E-03    0.696E-02
RMM:  22    -0.871021680419E+03    0.84629E-05   -0.21532E-05  3093   0.768E-03    0.294E-02
RMM:  23    -0.871021685991E+03   -0.55722E-05   -0.78743E-06  3072   0.455E-03    0.360E-02
RMM:  24    -0.871021686473E+03   -0.48232E-06   -0.61992E-06  3054   0.427E-03
     40 T=   604. E= -.91699877E+03 F= -.91719451E+03 E0= -.91718405E+03  EK= 0.83484E+01 SP= -.10E+02 SK= 0.21E+01 mag=    274.335
       N       E                     dE             d eps       ncg     rms          rms(c)
DAV:   1    -0.870811770252E+03    0.20992E+00   -0.11140E+01  3264   0.319E+00    0.234E+00
RMM:   2    -0.870916611117E+03   -0.10484E+00   -0.14094E-01  3072   0.786E-01    0.320E+00
RMM:   3    -0.870959128012E+03   -0.42517E-01   -0.65931E-02  3072   0.484E-01    0.390E+00
RMM:   4    -0.870904191289E+03    0.54937E-01   -0.22921E-02  3072   0.310E-01    0.184E+00
RMM:   5    -0.870888988780E+03    0.15203E-01   -0.76117E-03  3072   0.175E-01    0.508E-01
RMM:   6    -0.870889204017E+03   -0.21524E-03   -0.22244E-03  3164   0.756E-02    0.534E-01
RMM:   7    -0.870888805533E+03    0.39848E-03   -0.83691E-04  3072   0.545E-02    0.488E-01
RMM:   8    -0.870888087897E+03    0.71764E-03   -0.57211E-04  3072   0.458E-02    0.292E-01
RMM:   9    -0.870888811485E+03   -0.72359E-03   -0.59348E-04  3072   0.411E-02    0.481E-01
RMM:  10    -0.870888264484E+03    0.54700E-03   -0.50612E-04  3072   0.397E-02    0.243E-01
RMM:  11    -0.870888360697E+03   -0.96213E-04   -0.28324E-04  3072   0.286E-02    0.270E-01
RMM:  12    -0.870888539980E+03   -0.17928E-03   -0.16515E-04  3072   0.226E-02    0.252E-01
RMM:  13    -0.870888518097E+03    0.21882E-04   -0.11155E-04  3072   0.198E-02    0.195E-01
RMM:  14    -0.870888822473E+03   -0.30438E-03   -0.12671E-04  3074   0.188E-02    0.256E-01
RMM:  15    -0.870888995270E+03   -0.17280E-03   -0.23844E-04  3343   0.235E-02    0.175E-01
RMM:  16    -0.870889159453E+03   -0.16418E-03   -0.11266E-04  3072   0.188E-02    0.198E-01
RMM:  17    -0.870889459207E+03   -0.29975E-03   -0.29668E-04  3384   0.252E-02    0.200E-01
RMM:  18    -0.870889502282E+03   -0.43074E-04   -0.14018E-04  3103   0.207E-02    0.130E-01
RMM:  19    -0.870889646822E+03   -0.14454E-03   -0.13684E-04  3240   0.164E-02    0.152E-01
RMM:  20    -0.870889775161E+03   -0.12834E-03   -0.27785E-04  3384   0.231E-02    0.110E-01
RMM:  21    -0.870889870354E+03   -0.95194E-04   -0.79817E-05  3076   0.148E-02    0.116E-01
RMM:  22    -0.870889986561E+03   -0.11621E-03   -0.26418E-04  3387   0.210E-02    0.103E-01
RMM:  23    -0.870890021181E+03   -0.34620E-04   -0.37645E-05  3072   0.104E-02    0.828E-02
RMM:  24    -0.870890092894E+03   -0.71714E-04   -0.76956E-05  3319   0.116E-02    0.925E-02
RMM:  25    -0.870890170014E+03   -0.77119E-04   -0.15350E-04  3387   0.172E-02    0.816E-02
RMM:  26    -0.870890228223E+03   -0.58210E-04   -0.57281E-05  3193   0.113E-02    0.811E-02
RMM:  27    -0.870890338102E+03   -0.10988E-03   -0.34172E-04  3507   0.234E-02    0.789E-02
RMM:  28    -0.870890399696E+03   -0.61595E-04   -0.51522E-05  3239   0.106E-02    0.750E-02
RMM:  29    -0.870890461063E+03   -0.61367E-04   -0.80378E-05  3371   0.113E-02    0.758E-02
RMM:  30    -0.870890413473E+03    0.47590E-04   -0.53730E-05  3376   0.112E-02    0.786E-02
RMM:  31    -0.870890105801E+03    0.30767E-03   -0.99448E-04  4012   0.407E-02    0.834E-02
RMM:  32    -0.870889890732E+03    0.21507E-03   -0.63651E-04  3971   0.319E-02    0.954E-02
RMM:  33    -0.870889834548E+03    0.56184E-04   -0.11429E-04  3403   0.142E-02    0.102E-01
RMM:  34    -0.870890176592E+03   -0.34204E-03   -0.21066E-03  4280   0.611E-02    0.103E-01
RMM:  35    -0.870890333237E+03   -0.15665E-03   -0.18596E-04  3638   0.195E-02    0.759E-02
RMM:  36    -0.870890518087E+03   -0.18485E-03   -0.87517E-04  4003   0.375E-02    0.931E-02
RMM:  37    -0.870890728868E+03   -0.21078E-03   -0.50841E-04  3961   0.284E-02    0.102E-01
RMM:  38    -0.870890836065E+03   -0.10720E-03   -0.44689E-05  3390   0.999E-03    0.106E-01
RMM:  39    -0.870890836161E+03   -0.96217E-07   -0.43436E-06  2770   0.463E-03
     41 T=   648. E= -.91699820E+03 F= -.91709285E+03 E0= -.91706965E+03  EK= 0.89627E+01 SP= -.11E+02 SK= 0.20E+01 mag=    269.084
       N       E                     dE             d eps       ncg     rms          rms(c)
DAV:   1    -0.870683677905E+03    0.20716E+00   -0.11956E+01  3200   0.331E+00    0.238E+00
RMM:   2    -0.870795692547E+03   -0.11201E+00   -0.15181E-01  3072   0.817E-01    0.342E+00
RMM:   3    -0.870842362635E+03   -0.46670E-01   -0.71090E-02  3072   0.501E-01    0.430E+00
RMM:   4    -0.870790543726E+03    0.51819E-01   -0.26720E-02  3072   0.330E-01    0.246E+00
RMM:   5    -0.870764735151E+03    0.25809E-01   -0.99341E-03  3072   0.203E-01    0.594E-01
RMM:   6    -0.870764495418E+03    0.23973E-03   -0.24802E-03  3166   0.793E-02    0.561E-01
RMM:   7    -0.870764707649E+03   -0.21223E-03   -0.84491E-04  3072   0.520E-02    0.586E-01
RMM:   8    -0.870763870930E+03    0.83672E-03   -0.62017E-04  3072   0.470E-02    0.447E-01
RMM:   9    -0.870764219741E+03   -0.34881E-03   -0.40470E-04  3072   0.339E-02    0.486E-01
RMM:  10    -0.870764342266E+03   -0.12253E-03   -0.38006E-04  3072   0.324E-02    0.462E-01
RMM:  11    -0.870764290137E+03    0.52129E-04   -0.18720E-04  3072   0.228E-02    0.407E-01
RMM:  12    -0.870764697090E+03   -0.40695E-03   -0.15119E-04  3074   0.197E-02    0.433E-01
RMM:  13    -0.870764958064E+03   -0.26097E-03   -0.12202E-04  3084   0.179E-02    0.416E-01
RMM:  14    -0.870764946040E+03    0.12024E-04   -0.21281E-05  3061   0.660E-03    0.416E-01
RMM:  15    -0.870763943693E+03    0.10023E-02   -0.35118E-04  3958   0.317E-02    0.424E-01
RMM:  16    -0.870763525613E+03    0.41808E-03   -0.23345E-04  3944   0.265E-02    0.442E-01
RMM:  17    -0.870762265822E+03    0.12598E-02   -0.75461E-04  3965   0.430E-02    0.486E-01
RMM:  18    -0.870761815279E+03    0.45054E-03   -0.12875E-04  3415   0.183E-02    0.477E-01
RMM:  19    -0.870761877350E+03   -0.62071E-04   -0.10260E-05  2958   0.593E-03    0.477E-01
RMM:  20    -0.870761298777E+03    0.57857E-03   -0.16750E-04  3769   0.184E-02    0.490E-01
RMM:  21    -0.870761659207E+03   -0.36043E-03   -0.13706E-04  3947   0.198E-02    0.483E-01
RMM:  22    -0.870761471179E+03    0.18803E-03   -0.95967E-05  3910   0.178E-02    0.464E-01
RMM:  23    -0.870760747708E+03    0.72347E-03   -0.25347E-04  3958   0.234E-02    0.479E-01
RMM:  24    -0.870759825931E+03    0.92178E-03   -0.42646E-04  3966   0.277E-02    0.506E-01
RMM:  25    -0.870758131781E+03    0.16941E-02   -0.14783E-03  4264   0.529E-02    0.604E-01
RMM:  26    -0.870754913549E+03    0.32182E-02   -0.27858E-03  4319   0.701E-02    0.717E-01
RMM:  27    -0.870757204431E+03   -0.22909E-02   -0.58380E-04  3967   0.408E-02    0.750E-01
RMM:  28    -0.870757559631E+03   -0.35520E-03   -0.57449E-04  3971   0.403E-02    0.727E-01
RMM:  29    -0.870758865261E+03   -0.13056E-02   -0.75402E-04  3996   0.405E-02    0.702E-01
RMM:  30    -0.870760776232E+03   -0.19110E-02   -0.17763E-03  4283   0.553E-02    0.643E-01
RMM:  31    -0.870761916703E+03   -0.11405E-02   -0.61062E-04  3987   0.331E-02    0.627E-01
RMM:  32    -0.870765597232E+03   -0.36805E-02   -0.65031E-03  4423   0.104E-01    0.627E-01
RMM:  33    -0.870765401279E+03    0.19595E-03   -0.14498E-04  3387   0.244E-02    0.623E-01
RMM:  34    -0.870762286827E+03    0.31145E-02   -0.25517E-03  4315   0.685E-02    0.622E-01
RMM:  35    -0.870761199761E+03    0.10871E-02   -0.64965E-04  3995   0.334E-02    0.639E-01
RMM:  36    -0.870756392233E+03    0.48075E-02   -0.59070E-03  4395   0.979E-02    0.699E-01
RMM:  37    -0.870754707939E+03    0.16843E-02   -0.14843E-03  4269   0.490E-02    0.764E-01
RMM:  38    -0.870757051316E+03   -0.23434E-02   -0.82904E-04  4020   0.420E-02    0.717E-01
RMM:  39    -0.870762337817E+03   -0.52865E-02   -0.11204E-02  4758   0.138E-01    0.651E-01
RMM:  40    -0.870767679689E+03   -0.53419E-02   -0.13123E-02  4835   0.144E-01    0.695E-01
RMM:  41    -0.870771508415E+03   -0.38287E-02   -0.42581E-03  4353   0.829E-02    0.748E-01
RMM:  42    -0.870773630704E+03   -0.21223E-02   -0.17357E-03  4283   0.539E-02    0.791E-01
RMM:  43    -0.870773715439E+03   -0.84735E-04   -0.12697E-04  3846   0.199E-02    0.855E-01
RMM:  44    -0.870773704082E+03    0.11357E-04   -0.19299E-05  3147   0.805E-03    0.869E-01
RMM:  45    -0.870773515792E+03    0.18829E-03   -0.62551E-05  3411   0.124E-02    0.834E-01
RMM:  46    -0.870774135389E+03   -0.61960E-03   -0.10818E-04  3424   0.152E-02    0.842E-01
RMM:  47    -0.870775534000E+03   -0.13986E-02   -0.17237E-02  4856   0.171E-01    0.130E+00
RMM:  48    -0.870776225283E+03   -0.69128E-03   -0.19032E-04  3393   0.292E-02    0.127E+00
RMM:  49    -0.870776670399E+03   -0.44512E-03   -0.21648E-04  3935   0.224E-02    0.118E+00
RMM:  50    -0.870776889621E+03   -0.21922E-03   -0.29566E-05  3357   0.771E-03    0.120E+00
RMM:  51    -0.870776889382E+03    0.23948E-06   -0.13281E-06  2212   0.186E-03
     42 T=   694. E= -.91700802E+03 F= -.91700929E+03 E0= -.91700075E+03  EK= 0.96052E+01 SP= -.11E+02 SK= 0.18E+01 mag=    261.858
       N       E                     dE             d eps       ncg     rms          rms(c)
DAV:   1    -0.870572457182E+03    0.20443E+00   -0.12801E+01  3200   0.343E+00    0.262E+00
RMM:   2    -0.870759958727E+03   -0.18750E+00   -0.19046E-01  3072   0.905E-01    0.504E+00
RMM:   3    -0.870723455485E+03    0.36503E-01   -0.10614E-01  3072   0.637E-01    0.428E+00
RMM:   4    -0.870705786792E+03    0.17669E-01   -0.34029E-02  3072   0.361E-01    0.315E+00
RMM:   5    -0.870662343173E+03    0.43444E-01   -0.14510E-02  3072   0.254E-01    0.117E+00
RMM:   6    -0.870660097813E+03    0.22454E-02   -0.31306E-03  3073   0.953E-02    0.807E-01
RMM:   7    -0.870663265936E+03   -0.31681E-02   -0.22670E-03  3072   0.849E-02    0.114E+00
RMM:   8    -0.870660764824E+03    0.25011E-02   -0.15076E-03  3072   0.745E-02    0.743E-01
RMM:   9    -0.870663124029E+03   -0.23592E-02   -0.14305E-03  3072   0.655E-02    0.927E-01
RMM:  10    -0.870664357636E+03   -0.12336E-02   -0.15914E-03  3074   0.690E-02    0.869E-01
RMM:  11    -0.870663914218E+03    0.44342E-03   -0.10318E-03  3072   0.569E-02    0.692E-01
RMM:  12    -0.870666945307E+03   -0.30311E-02   -0.14090E-03  3086   0.631E-02    0.837E-01
RMM:  13    -0.870667767019E+03   -0.82171E-03   -0.19459E-03  3273   0.726E-02    0.593E-01
RMM:  14    -0.870668989839E+03   -0.12228E-02   -0.92908E-04  3072   0.540E-02    0.596E-01
RMM:  15    -0.870672490056E+03   -0.35002E-02   -0.25751E-03  3369   0.786E-02    0.748E-01
RMM:  16    -0.870671427825E+03    0.10622E-02   -0.13258E-03  3072   0.667E-02    0.335E-01
RMM:  17    -0.870671848159E+03   -0.42033E-03   -0.46830E-04  3072   0.373E-02    0.360E-01
RMM:  18    -0.870672181683E+03   -0.33352E-03   -0.31423E-04  3072   0.328E-02    0.350E-01
RMM:  19    -0.870672020032E+03    0.16165E-03   -0.24600E-04  3072   0.306E-02    0.215E-01
RMM:  20    -0.870672674855E+03   -0.65482E-03   -0.32426E-04  3072   0.310E-02    0.345E-01
RMM:  21    -0.870672483040E+03    0.19181E-03   -0.34309E-04  3091   0.333E-02    0.177E-01
RMM:  22    -0.870672594830E+03   -0.11179E-03   -0.17036E-04  3072   0.224E-02    0.195E-01
RMM:  23    -0.870672656507E+03   -0.61677E-04   -0.16551E-04  3072   0.230E-02    0.181E-01
RMM:  24    -0.870672543285E+03    0.11322E-03   -0.99514E-05  3072   0.192E-02    0.805E-02
RMM:  25    -0.870672593339E+03   -0.50054E-04   -0.47540E-05  3072   0.122E-02    0.118E-01
RMM:  26    -0.870672540463E+03    0.52875E-04   -0.28259E-05  3072   0.109E-02    0.453E-02
RMM:  27    -0.870672545775E+03   -0.53119E-05   -0.10393E-05  3072   0.601E-03    0.519E-02
RMM:  28    -0.870672542231E+03    0.35441E-05   -0.58398E-06  3064   0.489E-03    0.338E-02
RMM:  29    -0.870672541134E+03    0.10974E-05   -0.37154E-06  2814   0.373E-03    0.262E-02
RMM:  30    -0.870672545820E+03   -0.46858E-05   -0.41005E-06  2807   0.355E-03    0.317E-02
RMM:  31    -0.870672543150E+03    0.26698E-05   -0.24934E-06  2495   0.301E-03    0.161E-02
RMM:  32    -0.870672545072E+03   -0.19226E-05   -0.13132E-06  1836   0.209E-03    0.206E-02
RMM:  33    -0.870672544227E+03    0.84547E-06   -0.10263E-06  1792   0.204E-03
     43 T=   742. E= -.91702747E+03 F= -.91693668E+03 E0= -.91694065E+03  EK= 0.10256E+02 SP= -.12E+02 SK= 0.16E+01 mag=    256.963
       N       E                     dE             d eps       ncg     rms          rms(c)
DAV:   1    -0.870458703801E+03    0.21384E+00   -0.13632E+01  3200   0.354E+00    0.245E+00
RMM:   2    -0.870580094400E+03   -0.12139E+00   -0.17424E-01  3072   0.880E-01    0.344E+00
RMM:   3    -0.870626905791E+03   -0.46811E-01   -0.88598E-02  3072   0.562E-01    0.433E+00
RMM:   4    -0.870568934011E+03    0.57972E-01   -0.27724E-02  3072   0.345E-01    0.230E+00
RMM:   5    -0.870544832912E+03    0.24101E-01   -0.96846E-03  3072   0.195E-01    0.641E-01
RMM:   6    -0.870544006733E+03    0.82618E-03   -0.27284E-03  3185   0.827E-02    0.443E-01
RMM:   7    -0.870544248757E+03   -0.24202E-03   -0.90802E-04  3072   0.550E-02    0.579E-01
RMM:   8    -0.870542798234E+03    0.14505E-02   -0.68896E-04  3072   0.514E-02    0.268E-01
RMM:   9    -0.870543282663E+03   -0.48443E-03   -0.73006E-04  3072   0.473E-02    0.437E-01
RMM:  10    -0.870542862889E+03    0.41977E-03   -0.62380E-04  3072   0.444E-02    0.325E-01
RMM:  11    -0.870542481709E+03    0.38118E-03   -0.31836E-04  3072   0.312E-02    0.140E-01
RMM:  12    -0.870542617349E+03   -0.13564E-03   -0.14916E-04  3072   0.208E-02    0.201E-01
RMM:  13    -0.870542507608E+03    0.10974E-03   -0.75393E-05  3072   0.173E-02    0.104E-01
RMM:  14    -0.870542506418E+03    0.11899E-05   -0.31663E-05  3072   0.996E-03    0.941E-02
RMM:  15    -0.870542579697E+03   -0.73279E-04   -0.33276E-05  3072   0.104E-02    0.131E-01
RMM:  16    -0.870542547216E+03    0.32481E-04   -0.29798E-05  3072   0.108E-02    0.655E-02
RMM:  17    -0.870542564137E+03   -0.16921E-04   -0.19080E-05  3072   0.779E-03    0.770E-02
RMM:  18    -0.870542582333E+03   -0.18196E-04   -0.18090E-05  3072   0.770E-03    0.697E-02
RMM:  19    -0.870542570327E+03    0.12006E-04   -0.11642E-05  3072   0.648E-03    0.345E-02
RMM:  20    -0.870542581814E+03   -0.11487E-04   -0.84093E-06  3072   0.497E-03    0.500E-02
RMM:  21    -0.870542576968E+03    0.48460E-05   -0.66321E-06  3065   0.475E-03    0.248E-02
RMM:  22    -0.870542578698E+03   -0.17307E-05   -0.33126E-06  2783   0.313E-03    0.265E-02
RMM:  23    -0.870542581812E+03   -0.31139E-05   -0.37503E-06  2767   0.330E-03    0.284E-02
RMM:  24    -0.870542579252E+03    0.25605E-05   -0.20947E-06  2297   0.270E-03    0.120E-02
RMM:  25    -0.870542580233E+03   -0.98099E-06   -0.87227E-07  1786   0.164E-03
     44 T=   787. E= -.91702885E+03 F= -.91683988E+03 E0= -.91684471E+03  EK= 0.10891E+02 SP= -.12E+02 SK= 0.13E+01 mag=    256.238
       N       E                     dE             d eps       ncg     rms          rms(c)
DAV:   1    -0.870314213662E+03    0.22837E+00   -0.14439E+01  3200   0.364E+00    0.251E+00
RMM:   2    -0.870442571752E+03   -0.12836E+00   -0.18520E-01  3072   0.907E-01    0.354E+00
RMM:   3    -0.870491252592E+03   -0.48681E-01   -0.94740E-02  3072   0.581E-01    0.443E+00
RMM:   4    -0.870429492754E+03    0.61760E-01   -0.29382E-02  3072   0.355E-01    0.231E+00
RMM:   5    -0.870404843478E+03    0.24649E-01   -0.10106E-02  3072   0.199E-01    0.638E-01
RMM:   6    -0.870404119150E+03    0.72433E-03   -0.28922E-03  3193   0.847E-02    0.464E-01
RMM:   7    -0.870404302052E+03   -0.18290E-03   -0.95358E-04  3072   0.566E-02    0.595E-01
RMM:   8    -0.870402790711E+03    0.15113E-02   -0.71074E-04  3072   0.522E-02    0.270E-01
RMM:   9    -0.870403337498E+03   -0.54679E-03   -0.78129E-04  3072   0.488E-02    0.456E-01
RMM:  10    -0.870402796629E+03    0.54087E-03   -0.66418E-04  3072   0.462E-02    0.311E-01
RMM:  11    -0.870402457749E+03    0.33888E-03   -0.31704E-04  3072   0.308E-02    0.142E-01
RMM:  12    -0.870402593563E+03   -0.13581E-03   -0.15236E-04  3072   0.211E-02    0.202E-01
RMM:  13    -0.870402472967E+03    0.12060E-03   -0.80245E-05  3072   0.179E-02    0.948E-02
RMM:  14    -0.870402491498E+03   -0.18531E-04   -0.32658E-05  3072   0.100E-02    0.106E-01
RMM:  15    -0.870402556715E+03   -0.65217E-04   -0.31732E-05  3072   0.103E-02    0.127E-01
RMM:  16    -0.870402527199E+03    0.29516E-04   -0.28220E-05  3072   0.103E-02    0.707E-02
RMM:  17    -0.870402552875E+03   -0.25676E-04   -0.21172E-05  3072   0.811E-03    0.876E-02
RMM:  18    -0.870402567517E+03   -0.14642E-04   -0.20646E-05  3072   0.825E-03    0.702E-02
RMM:  19    -0.870402556950E+03    0.10567E-04   -0.12287E-05  3072   0.653E-03    0.383E-02
RMM:  20    -0.870402570382E+03   -0.13432E-04   -0.10272E-05  3072   0.546E-03    0.523E-02
RMM:  21    -0.870402564597E+03    0.57855E-05   -0.82512E-06  3071   0.526E-03    0.250E-02
RMM:  22    -0.870402568507E+03   -0.39099E-05   -0.45158E-06  2964   0.359E-03    0.316E-02
RMM:  23    -0.870402569980E+03   -0.14732E-05   -0.46667E-06  2870   0.368E-03    0.268E-02
RMM:  24    -0.870402567858E+03    0.21224E-05   -0.20583E-06  2275   0.261E-03    0.123E-02
RMM:  25    -0.870402569241E+03   -0.13835E-05   -0.10191E-06  1801   0.175E-03    0.173E-02
RMM:  26    -0.870402568731E+03    0.51049E-06   -0.72794E-07  1774   0.164E-03
     45 T=   830. E= -.91703043E+03 F= -.91673451E+03 E0= -.91674017E+03  EK= 0.11486E+02 SP= -.13E+02 SK= 0.11E+01 mag=    255.497
       N       E                     dE             d eps       ncg     rms          rms(c)
DAV:   1    -0.870157957243E+03    0.24461E+00   -0.15179E+01  3264   0.373E+00    0.256E+00
RMM:   2    -0.870293000364E+03   -0.13504E+00   -0.19538E-01  3072   0.932E-01    0.365E+00
RMM:   3    -0.870342757240E+03   -0.49757E-01   -0.10017E-01  3072   0.598E-01    0.451E+00
RMM:   4    -0.870278226288E+03    0.64531E-01   -0.31019E-02  3072   0.365E-01    0.235E+00
RMM:   5    -0.870252652225E+03    0.25574E-01   -0.10580E-02  3072   0.203E-01    0.638E-01
RMM:   6    -0.870251997549E+03    0.65468E-03   -0.30276E-03  3188   0.866E-02    0.478E-01
RMM:   7    -0.870252155084E+03   -0.15753E-03   -0.10098E-03  3072   0.585E-02    0.613E-01
RMM:   8    -0.870250577048E+03    0.15780E-02   -0.73609E-04  3072   0.532E-02    0.275E-01
RMM:   9    -0.870251177726E+03   -0.60068E-03   -0.81023E-04  3072   0.496E-02    0.473E-01
RMM:  10    -0.870250560773E+03    0.61695E-03   -0.68408E-04  3072   0.469E-02    0.310E-01
RMM:  11    -0.870250229500E+03    0.33127E-03   -0.32429E-04  3072   0.310E-02    0.147E-01
RMM:  12    -0.870250364566E+03   -0.13507E-03   -0.15436E-04  3072   0.214E-02    0.202E-01
RMM:  13    -0.870250241439E+03    0.12313E-03   -0.82265E-05  3072   0.181E-02    0.968E-02
RMM:  14    -0.870250266772E+03   -0.25332E-04   -0.34489E-05  3072   0.103E-02    0.113E-01
RMM:  15    -0.870250324815E+03   -0.58043E-04   -0.33262E-05  3072   0.106E-02    0.123E-01
[...]
RMM:   4    -0.873289027106E+03    0.35219E-01   -0.16418E-02  3072   0.271E-01    0.128E+00
RMM:   5    -0.873280710980E+03    0.83161E-02   -0.45135E-03  3090   0.126E-01    0.277E-01
RMM:   6    -0.873281092941E+03   -0.38196E-03   -0.15201E-03  3186   0.610E-02    0.407E-01
RMM:   7    -0.873280073946E+03    0.10190E-02   -0.60284E-04  3072   0.476E-02    0.182E-01
RMM:   8    -0.873280258890E+03   -0.18494E-03   -0.46883E-04  3072   0.387E-02    0.280E-01
RMM:   9    -0.873280030913E+03    0.22798E-03   -0.33426E-04  3072   0.325E-02    0.199E-01
RMM:  10    -0.873279854927E+03    0.17599E-03   -0.15188E-04  3072   0.218E-02    0.577E-02
RMM:  11    -0.873279881564E+03   -0.26637E-04   -0.55093E-05  3072   0.124E-02    0.847E-02
RMM:  12    -0.873279847291E+03    0.34274E-04   -0.25878E-05  3071   0.100E-02    0.212E-02
RMM:  13    -0.873279850098E+03   -0.28075E-05   -0.74067E-06  3055   0.445E-03    0.303E-02
RMM:  14    -0.873279846398E+03    0.37003E-05   -0.35947E-06  2842   0.362E-03    0.139E-02
RMM:  15    -0.873279846628E+03   -0.22970E-06   -0.16608E-06  1829   0.230E-03
    988 T=   502. E= -.91693780E+03 F= -.91988490E+03 E0= -.91990703E+03  EK= 0.69414E+01 SP= -.40E+01 SK= 0.86E-02 mag=    255.403
       N       E                     dE             d eps       ncg     rms          rms(c)
DAV:   1    -0.873244938043E+03    0.34908E-01   -0.90362E+00  3200   0.288E+00    0.197E+00
RMM:   2    -0.873323428181E+03   -0.78490E-01   -0.11983E-01  3072   0.740E-01    0.265E+00
RMM:   3    -0.873343970150E+03   -0.20542E-01   -0.59920E-02  3072   0.464E-01    0.298E+00
RMM:   4    -0.873308356246E+03    0.35614E-01   -0.16615E-02  3072   0.273E-01    0.127E+00
RMM:   5    -0.873300071735E+03    0.82845E-02   -0.45267E-03  3090   0.126E-01    0.277E-01
RMM:   6    -0.873300461845E+03   -0.39011E-03   -0.15358E-03  3190   0.612E-02    0.410E-01
RMM:   7    -0.873299429240E+03    0.10326E-02   -0.60410E-04  3072   0.476E-02    0.183E-01
RMM:   8    -0.873299613669E+03   -0.18443E-03   -0.47356E-04  3072   0.389E-02    0.281E-01
RMM:   9    -0.873299381390E+03    0.23228E-03   -0.33837E-04  3072   0.327E-02    0.198E-01
RMM:  10    -0.873299207360E+03    0.17403E-03   -0.15264E-04  3072   0.218E-02    0.582E-02
RMM:  11    -0.873299233611E+03   -0.26251E-04   -0.55221E-05  3072   0.124E-02    0.845E-02
RMM:  12    -0.873299199308E+03    0.34303E-04   -0.25737E-05  3071   0.998E-03    0.211E-02
RMM:  13    -0.873299201846E+03   -0.25380E-05   -0.73325E-06  3055   0.441E-03    0.296E-02
RMM:  14    -0.873299198283E+03    0.35623E-05   -0.35076E-06  2810   0.357E-03    0.137E-02
RMM:  15    -0.873299198486E+03   -0.20311E-06   -0.16344E-06  1826   0.228E-03
    989 T=   506. E= -.91693766E+03 F= -.91990518E+03 E0= -.91992696E+03  EK= 0.69987E+01 SP= -.40E+01 SK= 0.83E-02 mag=    255.496
       N       E                     dE             d eps       ncg     rms          rms(c)
DAV:   1    -0.873260132603E+03    0.39066E-01   -0.91076E+00  3264   0.289E+00    0.198E+00
RMM:   2    -0.873339086763E+03   -0.78954E-01   -0.12085E-01  3072   0.743E-01    0.265E+00
RMM:   3    -0.873359973759E+03   -0.20887E-01   -0.60759E-02  3072   0.467E-01    0.299E+00
RMM:   4    -0.873323933467E+03    0.36040E-01   -0.16805E-02  3072   0.275E-01    0.127E+00
RMM:   5    -0.873315737553E+03    0.81959E-02   -0.45390E-03  3093   0.126E-01    0.278E-01
RMM:   6    -0.873316134765E+03   -0.39721E-03   -0.15336E-03  3187   0.612E-02    0.413E-01
RMM:   7    -0.873315088392E+03    0.10464E-02   -0.60728E-04  3072   0.477E-02    0.183E-01
RMM:   8    -0.873315273689E+03   -0.18530E-03   -0.47922E-04  3072   0.391E-02    0.283E-01
RMM:   9    -0.873315032225E+03    0.24146E-03   -0.34176E-04  3072   0.328E-02    0.195E-01
RMM:  10    -0.873314864814E+03    0.16741E-03   -0.15149E-04  3072   0.217E-02    0.591E-02
RMM:  11    -0.873314890485E+03   -0.25671E-04   -0.54979E-05  3072   0.124E-02    0.845E-02
RMM:  12    -0.873314856155E+03    0.34330E-04   -0.25482E-05  3071   0.992E-03    0.211E-02
RMM:  13    -0.873314858438E+03   -0.22836E-05   -0.72501E-06  3054   0.437E-03    0.290E-02
RMM:  14    -0.873314855015E+03    0.34236E-05   -0.34229E-06  2779   0.351E-03    0.135E-02
RMM:  15    -0.873314855204E+03   -0.18912E-06   -0.16145E-06  1826   0.227E-03
    990 T=   510. E= -.91693758E+03 F= -.91992184E+03 E0= -.91994325E+03  EK= 0.70516E+01 SP= -.41E+01 SK= 0.77E-02 mag=    255.588
       N       E                     dE             d eps       ncg     rms          rms(c)
DAV:   1    -0.873271385181E+03    0.43470E-01   -0.91725E+00  3264   0.290E+00    0.199E+00
RMM:   2    -0.873350718631E+03   -0.79333E-01   -0.12176E-01  3072   0.745E-01    0.266E+00
RMM:   3    -0.873371975880E+03   -0.21257E-01   -0.61551E-02  3072   0.470E-01    0.300E+00
RMM:   4    -0.873335476285E+03    0.36500E-01   -0.16987E-02  3072   0.276E-01    0.126E+00
RMM:   5    -0.873327421640E+03    0.80546E-02   -0.45345E-03  3094   0.125E-01    0.278E-01
RMM:   6    -0.873327828302E+03   -0.40666E-03   -0.15347E-03  3185   0.614E-02    0.417E-01
RMM:   7    -0.873326766686E+03    0.10616E-02   -0.61044E-04  3072   0.479E-02    0.183E-01
RMM:   8    -0.873326953462E+03   -0.18678E-03   -0.48592E-04  3072   0.394E-02    0.284E-01
RMM:   9    -0.873326698075E+03    0.25539E-03   -0.34587E-04  3072   0.331E-02    0.189E-01
RMM:  10    -0.873326542546E+03    0.15553E-03   -0.14921E-04  3072   0.214E-02    0.607E-02
RMM:  11    -0.873326567263E+03   -0.24717E-04   -0.54538E-05  3072   0.123E-02    0.844E-02
RMM:  12    -0.873326532927E+03    0.34335E-04   -0.25161E-05  3071   0.985E-03    0.211E-02
RMM:  13    -0.873326534980E+03   -0.20521E-05   -0.71746E-06  3054   0.434E-03    0.284E-02
RMM:  14    -0.873326531663E+03    0.33168E-05   -0.33552E-06  2744   0.347E-03    0.134E-02
RMM:  15    -0.873326531858E+03   -0.19567E-06   -0.16026E-06  1825   0.227E-03
    991 T=   513. E= -.91693748E+03 F= -.91993461E+03 E0= -.91995564E+03  EK= 0.70993E+01 SP= -.41E+01 SK= 0.69E-02 mag=    255.677
       N       E                     dE             d eps       ncg     rms          rms(c)
DAV:   1    -0.873278591908E+03    0.47940E-01   -0.92299E+00  3200   0.291E+00    0.200E+00
RMM:   2    -0.873358195138E+03   -0.79603E-01   -0.12250E-01  3072   0.747E-01    0.266E+00
RMM:   3    -0.873379868804E+03   -0.21674E-01   -0.62283E-02  3072   0.473E-01    0.300E+00
RMM:   4    -0.873342870655E+03    0.36998E-01   -0.17160E-02  3072   0.278E-01    0.124E+00
RMM:   5    -0.873335013333E+03    0.78573E-02   -0.45416E-03  3102   0.125E-01    0.278E-01
RMM:   6    -0.873335427545E+03   -0.41421E-03   -0.15150E-03  3179   0.611E-02    0.421E-01
RMM:   7    -0.873334350397E+03    0.10771E-02   -0.61266E-04  3072   0.480E-02    0.182E-01
RMM:   8    -0.873334540788E+03   -0.19039E-03   -0.49424E-04  3072   0.397E-02    0.285E-01
RMM:   9    -0.873334262982E+03    0.27781E-03   -0.35089E-04  3072   0.334E-02    0.179E-01
RMM:  10    -0.873334127485E+03    0.13550E-03   -0.14526E-04  3072   0.209E-02    0.632E-02
RMM:  11    -0.873334150632E+03   -0.23147E-04   -0.53659E-05  3072   0.123E-02    0.844E-02
RMM:  12    -0.873334116280E+03    0.34352E-04   -0.24683E-05  3071   0.974E-03    0.212E-02
RMM:  13    -0.873334118073E+03   -0.17926E-05   -0.70633E-06  3052   0.429E-03    0.278E-02
RMM:  14    -0.873334114899E+03    0.31738E-05   -0.32687E-06  2720   0.341E-03    0.133E-02
RMM:  15    -0.873334115096E+03   -0.19762E-06   -0.15903E-06  1824   0.227E-03
    992 T=   516. E= -.91693737E+03 F= -.91994337E+03 E0= -.91996404E+03  EK= 0.71410E+01 SP= -.41E+01 SK= 0.59E-02 mag=    255.763
       N       E                     dE             d eps       ncg     rms          rms(c)
DAV:   1    -0.873281893498E+03    0.52221E-01   -0.92790E+00  3264   0.292E+00    0.200E+00
RMM:   2    -0.873361673856E+03   -0.79780E-01   -0.12313E-01  3072   0.749E-01    0.266E+00
RMM:   3    -0.873383784691E+03   -0.22111E-01   -0.62960E-02  3072   0.476E-01    0.301E+00
RMM:   4    -0.873346270483E+03    0.37514E-01   -0.17326E-02  3072   0.280E-01    0.122E+00
RMM:   5    -0.873338650136E+03    0.76203E-02   -0.45344E-03  3107   0.124E-01    0.278E-01
RMM:   6    -0.873339073888E+03   -0.42375E-03   -0.14938E-03  3171   0.610E-02    0.425E-01
RMM:   7    -0.873337980522E+03    0.10934E-02   -0.61703E-04  3072   0.482E-02    0.181E-01
RMM:   8    -0.873338174928E+03   -0.19441E-03   -0.50298E-04  3072   0.400E-02    0.286E-01
RMM:   9    -0.873337865805E+03    0.30912E-03   -0.35621E-04  3072   0.337E-02    0.162E-01
RMM:  10    -0.873337760752E+03    0.10505E-03   -0.13974E-04  3072   0.202E-02    0.673E-02
RMM:  11    -0.873337780894E+03   -0.20142E-04   -0.51912E-05  3072   0.121E-02    0.842E-02
RMM:  12    -0.873337746817E+03    0.34077E-04   -0.23835E-05  3071   0.954E-03    0.215E-02
RMM:  13    -0.873337748378E+03   -0.15607E-05   -0.69105E-06  3051   0.424E-03    0.272E-02
RMM:  14    -0.873337745314E+03    0.30641E-05   -0.31847E-06  2694   0.335E-03    0.132E-02
RMM:  15    -0.873337745528E+03   -0.21423E-06   -0.15832E-06  1824   0.226E-03
    993 T=   519. E= -.91693726E+03 F= -.91994827E+03 E0= -.91996860E+03  EK= 0.71763E+01 SP= -.42E+01 SK= 0.49E-02 mag=    255.847
       N       E                     dE             d eps       ncg     rms          rms(c)
DAV:   1    -0.873281301864E+03    0.56443E-01   -0.93195E+00  3264   0.292E+00    0.201E+00
RMM:   2    -0.873361153347E+03   -0.79851E-01   -0.12361E-01  3072   0.750E-01    0.265E+00
RMM:   3    -0.873383749072E+03   -0.22596E-01   -0.63562E-02  3072   0.478E-01    0.302E+00
RMM:   4    -0.873345699143E+03    0.38050E-01   -0.17488E-02  3072   0.282E-01    0.120E+00
RMM:   5    -0.873338339218E+03    0.73599E-02   -0.45132E-03  3110   0.123E-01    0.277E-01
RMM:   6    -0.873338775779E+03   -0.43656E-03   -0.14859E-03  3170   0.609E-02    0.429E-01
RMM:   7    -0.873337665296E+03    0.11105E-02   -0.61873E-04  3072   0.483E-02    0.180E-01
RMM:   8    -0.873337862313E+03   -0.19702E-03   -0.51079E-04  3072   0.403E-02    0.286E-01
RMM:   9    -0.873337516489E+03    0.34582E-03   -0.36335E-04  3072   0.342E-02    0.139E-01
RMM:  10    -0.873337450526E+03    0.65963E-04   -0.13595E-04  3072   0.197E-02    0.734E-02
RMM:  11    -0.873337464748E+03   -0.14223E-04   -0.49230E-05  3072   0.119E-02    0.829E-02
RMM:  12    -0.873337432048E+03    0.32700E-04   -0.22294E-05  3070   0.911E-03    0.218E-02
RMM:  13    -0.873337433392E+03   -0.13440E-05   -0.67217E-06  3051   0.417E-03    0.268E-02
RMM:  14    -0.873337430386E+03    0.30062E-05   -0.30899E-06  2654   0.329E-03    0.131E-02
RMM:  15    -0.873337430641E+03   -0.25512E-06   -0.15742E-06  1824   0.226E-03
    994 T=   521. E= -.91693708E+03 F= -.91994932E+03 E0= -.91996932E+03  EK= 0.72048E+01 SP= -.42E+01 SK= 0.38E-02 mag=    255.926
       N       E                     dE             d eps       ncg     rms          rms(c)
DAV:   1    -0.873277040034E+03    0.60390E-01   -0.93507E+00  3200   0.293E+00    0.201E+00
RMM:   2    -0.873356850533E+03   -0.79810E-01   -0.12391E-01  3072   0.751E-01    0.265E+00
RMM:   3    -0.873379976740E+03   -0.23126E-01   -0.64076E-02  3072   0.480E-01    0.302E+00
RMM:   4    -0.873341388752E+03    0.38588E-01   -0.17643E-02  3072   0.283E-01    0.118E+00
RMM:   5    -0.873334299731E+03    0.70890E-02   -0.45050E-03  3117   0.122E-01    0.277E-01
RMM:   6    -0.873334744689E+03   -0.44496E-03   -0.14500E-03  3159   0.606E-02    0.432E-01
RMM:   7    -0.873333621558E+03    0.11231E-02   -0.62308E-04  3072   0.486E-02    0.180E-01
RMM:   8    -0.873333819828E+03   -0.19827E-03   -0.51549E-04  3072   0.404E-02    0.285E-01
RMM:   9    -0.873333443514E+03    0.37631E-03   -0.36721E-04  3072   0.344E-02    0.117E-01
RMM:  10    -0.873333410613E+03    0.32900E-04   -0.13704E-04  3072   0.197E-02    0.770E-02
RMM:  11    -0.873333409931E+03    0.68186E-06   -0.45360E-05  3072   0.118E-02    0.689E-02
RMM:  12    -0.873333388119E+03    0.21812E-04   -0.18385E-05  3063   0.784E-03    0.221E-02
RMM:  13    -0.873333389557E+03   -0.14377E-05   -0.62056E-06  3041   0.394E-03    0.271E-02
RMM:  14    -0.873333386421E+03    0.31357E-05   -0.29009E-06  2546   0.319E-03    0.131E-02
RMM:  15    -0.873333386714E+03   -0.29300E-06   -0.15362E-06  1823   0.223E-03
    995 T=   522. E= -.91693698E+03 F= -.91994674E+03 E0= -.91996645E+03  EK= 0.72263E+01 SP= -.42E+01 SK= 0.28E-02 mag=    256.002
       N       E                     dE             d eps       ncg     rms          rms(c)
DAV:   1    -0.873269316195E+03    0.64070E-01   -0.93725E+00  3200   0.293E+00    0.202E+00
RMM:   2    -0.873348983096E+03   -0.79667E-01   -0.12406E-01  3072   0.752E-01    0.264E+00
RMM:   3    -0.873372681435E+03   -0.23698E-01   -0.64512E-02  3072   0.482E-01    0.303E+00
RMM:   4    -0.873333564655E+03    0.39117E-01   -0.17796E-02  3072   0.285E-01    0.116E+00
RMM:   5    -0.873326739320E+03    0.68253E-02   -0.44926E-03  3123   0.121E-01    0.276E-01
RMM:   6    -0.873327191838E+03   -0.45252E-03   -0.14224E-03  3154   0.602E-02    0.435E-01
RMM:   7    -0.873326060716E+03    0.11311E-02   -0.62208E-04  3072   0.486E-02    0.180E-01
RMM:   8    -0.873326255367E+03   -0.19465E-03   -0.51165E-04  3072   0.403E-02    0.284E-01
RMM:   9    -0.873325886007E+03    0.36936E-03   -0.36522E-04  3072   0.342E-02    0.123E-01
RMM:  10    -0.873325845579E+03    0.40428E-04   -0.13747E-04  3072   0.197E-02    0.766E-02
RMM:  11    -0.873325851019E+03   -0.54405E-05   -0.45835E-05  3072   0.118E-02    0.762E-02
RMM:  12    -0.873325824300E+03    0.26719E-04   -0.18874E-05  3063   0.803E-03    0.208E-02
RMM:  13    -0.873325825740E+03   -0.14397E-05   -0.63700E-06  3043   0.403E-03    0.271E-02
RMM:  14    -0.873325822656E+03    0.30841E-05   -0.29511E-06  2509   0.319E-03    0.129E-02
RMM:  15    -0.873325822999E+03   -0.34303E-06   -0.15788E-06  1825   0.228E-03
    996 T=   524. E= -.91693693E+03 F= -.91994074E+03 E0= -.91996017E+03  EK= 0.72405E+01 SP= -.42E+01 SK= 0.19E-02 mag=    256.075
       N       E                     dE             d eps       ncg     rms          rms(c)
DAV:   1    -0.873258140795E+03    0.67682E-01   -0.93847E+00  3328   0.294E+00    0.202E+00
RMM:   2    -0.873337566768E+03   -0.79426E-01   -0.12407E-01  3072   0.751E-01    0.263E+00
RMM:   3    -0.873361874174E+03   -0.24307E-01   -0.64854E-02  3072   0.483E-01    0.304E+00
RMM:   4    -0.873322264772E+03    0.39609E-01   -0.17946E-02  3072   0.286E-01    0.114E+00
RMM:   5    -0.873315672561E+03    0.65922E-02   -0.44797E-03  3130   0.120E-01    0.275E-01
RMM:   6    -0.873316128671E+03   -0.45611E-03   -0.13915E-03  3147   0.597E-02    0.436E-01
RMM:   7    -0.873314998640E+03    0.11300E-02   -0.61913E-04  3072   0.485E-02    0.183E-01
RMM:   8    -0.873315181360E+03   -0.18272E-03   -0.49775E-04  3072   0.397E-02    0.282E-01
RMM:   9    -0.873314866654E+03    0.31471E-03   -0.35736E-04  3072   0.336E-02    0.162E-01
RMM:  10    -0.873314769380E+03    0.97274E-04   -0.14180E-04  3072   0.203E-02    0.681E-02
RMM:  11    -0.873314789644E+03   -0.20264E-04   -0.50861E-05  3072   0.120E-02    0.849E-02
RMM:  12    -0.873314755178E+03    0.34467E-04   -0.22738E-05  3066   0.924E-03    0.214E-02
RMM:  13    -0.873314756229E+03   -0.10519E-05   -0.67060E-06  3052   0.416E-03    0.259E-02
RMM:  14    -0.873314753491E+03    0.27387E-05   -0.30219E-06  2540   0.321E-03    0.132E-02
RMM:  15    -0.873314753802E+03   -0.31091E-06   -0.16187E-06  1828   0.230E-03
    997 T=   524. E= -.91693680E+03 F= -.91993133E+03 E0= -.91995051E+03  EK= 0.72475E+01 SP= -.43E+01 SK= 0.12E-02 mag=    256.146
       N       E                     dE             d eps       ncg     rms          rms(c)
DAV:   1    -0.873243835529E+03    0.70918E-01   -0.93875E+00  3200   0.294E+00    0.202E+00
RMM:   2    -0.873322918359E+03   -0.79083E-01   -0.12391E-01  3072   0.751E-01    0.262E+00
RMM:   3    -0.873347883652E+03   -0.24965E-01   -0.65097E-02  3072   0.484E-01    0.305E+00
RMM:   4    -0.873307826921E+03    0.40057E-01   -0.18092E-02  3072   0.288E-01    0.113E+00
RMM:   5    -0.873301416388E+03    0.64105E-02   -0.44714E-03  3136   0.119E-01    0.275E-01
RMM:   6    -0.873301869536E+03   -0.45315E-03   -0.13592E-03  3141   0.592E-02    0.436E-01
RMM:   7    -0.873300752734E+03    0.11168E-02   -0.61017E-04  3072   0.482E-02    0.189E-01
RMM:   8    -0.873300911380E+03   -0.15865E-03   -0.47623E-04  3072   0.389E-02    0.279E-01
RMM:   9    -0.873300673692E+03    0.23769E-03   -0.35249E-04  3072   0.330E-02    0.201E-01
RMM:  10    -0.873300504645E+03    0.16905E-03   -0.15843E-04  3072   0.222E-02    0.595E-02
RMM:  11    -0.873300531314E+03   -0.26669E-04   -0.55293E-05  3072   0.123E-02    0.857E-02
RMM:  12    -0.873300495968E+03    0.35346E-04   -0.24620E-05  3066   0.971E-03    0.218E-02
RMM:  13    -0.873300496854E+03   -0.88647E-06   -0.69647E-06  3051   0.420E-03
    998 T=   524. E= -.91693664E+03 F= -.91991882E+03 E0= -.91993776E+03  EK= 0.72475E+01 SP= -.43E+01 SK= 0.60E-03 mag=    256.210
       N       E                     dE             d eps       ncg     rms          rms(c)
DAV:   1    -0.873226626772E+03    0.73869E-01   -0.93791E+00  3264   0.293E+00    0.202E+00
RMM:   2    -0.873305598243E+03   -0.78971E-01   -0.12375E-01  3072   0.750E-01    0.262E+00
RMM:   3    -0.873330901564E+03   -0.25303E-01   -0.65640E-02  3072   0.486E-01    0.306E+00
RMM:   4    -0.873290547362E+03    0.40354E-01   -0.18275E-02  3072   0.289E-01    0.112E+00
RMM:   5    -0.873284245216E+03    0.63021E-02   -0.44617E-03  3139   0.118E-01    0.277E-01
RMM:   6    -0.873284682703E+03   -0.43749E-03   -0.13370E-03  3139   0.585E-02    0.431E-01
RMM:   7    -0.873283608552E+03    0.10742E-02   -0.58928E-04  3072   0.472E-02    0.200E-01
RMM:   8    -0.873283714587E+03   -0.10603E-03   -0.45463E-04  3072   0.382E-02    0.271E-01
RMM:   9    -0.873283565581E+03    0.14901E-03   -0.35691E-04  3072   0.328E-02    0.231E-01
RMM:  10    -0.873283331977E+03    0.23360E-03   -0.18148E-04  3072   0.244E-02    0.549E-02
RMM:  11    -0.873283361956E+03   -0.29979E-04   -0.59538E-05  3072   0.127E-02    0.864E-02
RMM:  12    -0.873283326192E+03    0.35764E-04   -0.26080E-05  3069   0.100E-02    0.225E-02
RMM:  13    -0.873283326781E+03   -0.58846E-06   -0.72812E-06  3050   0.424E-03
    999 T=   524. E= -.91693635E+03 F= -.91990350E+03 E0= -.91992221E+03  EK= 0.72407E+01 SP= -.43E+01 SK= 0.22E-03 mag=    256.276
       N       E                     dE             d eps       ncg     rms          rms(c)
DAV:   1    -0.873207251238E+03    0.76075E-01   -0.93642E+00  3200   0.293E+00    0.202E+00
RMM:   2    -0.873285687145E+03   -0.78436E-01   -0.12333E-01  3072   0.749E-01    0.261E+00
RMM:   3    -0.873311777826E+03   -0.26091E-01   -0.65704E-02  3072   0.486E-01    0.307E+00
RMM:   4    -0.873271073945E+03    0.40704E-01   -0.18419E-02  3072   0.290E-01    0.112E+00
RMM:   5    -0.873264819301E+03    0.62546E-02   -0.44614E-03  3145   0.118E-01    0.279E-01
RMM:   6    -0.873265239494E+03   -0.42019E-03   -0.13149E-03  3140   0.577E-02    0.426E-01
RMM:   7    -0.873264196661E+03    0.10428E-02   -0.57350E-04  3072   0.464E-02    0.208E-01
RMM:   8    -0.873264266542E+03   -0.69881E-04   -0.44549E-04  3072   0.379E-02    0.265E-01
RMM:   9    -0.873264154468E+03    0.11207E-03   -0.36579E-04  3072   0.330E-02    0.240E-01
RMM:  10    -0.873263900255E+03    0.25421E-03   -0.19323E-04  3072   0.255E-02    0.536E-02
RMM:  11    -0.873263931117E+03   -0.30863E-04   -0.61312E-05  3072   0.128E-02    0.867E-02
RMM:  12    -0.873263895229E+03    0.35888E-04   -0.26656E-05  3070   0.101E-02    0.228E-02
RMM:  13    -0.873263895643E+03   -0.41442E-06   -0.74420E-06  3049   0.425E-03
   1000 T=   523. E= -.91693614E+03 F= -.91988600E+03 E0= -.91990450E+03  EK= 0.72277E+01 SP= -.43E+01 SK= 0.32E-04 mag=    256.340
