Fex5                                    
           1
    10.779736    0.000000    0.000000
     0.000000   10.779736    0.000000
     0.000000    0.000000   10.779736
   Fe
   108
Direct configuration=     1
   0.00000000  0.00000000  0.00000000
   0.00000000  0.00000000  0.33333334
   0.00000000  0.00000000  0.66666669
   0.00000000  0.33333334  0.00000000
   0.00000000  0.33333334  0.33333334
   0.00000000  0.33333334  0.66666669
   0.00000000  0.66666669  0.00000000
   0.00000000  0.66666669  0.33333334
   0.00000000  0.66666669  0.66666669
   0.33333334  0.00000000  0.00000000
   0.33333334  0.00000000  0.33333334
   0.33333334  0.00000000  0.66666669
   0.33333334  0.33333334  0.00000000
   0.33333334  0.33333334  0.33333334
   0.33333334  0.33333334  0.66666669
   0.33333334  0.66666669  0.00000000
   0.33333334  0.66666669  0.33333334
   0.33333334  0.66666669  0.66666669
   0.66666669  0.00000000  0.00000000
   0.66666669  0.00000000  0.33333334
   0.66666669  0.00000000  0.66666669
   0.66666669  0.33333334  0.00000000
   0.66666669  0.33333334  0.33333334
   0.66666669  0.33333334  0.66666669
   0.66666669  0.66666669  0.00000000
   0.66666669  0.66666669  0.33333334
   0.66666669  0.66666669  0.66666669
   0.00000000  0.16666667  0.16666667
   0.00000000  0.16666667  0.50000000
   0.00000000  0.16666667  0.83333331
   0.00000000  0.50000000  0.16666667
   0.00000000  0.50000000  0.50000000
   0.00000000  0.50000000  0.83333331
   0.00000000  0.83333331  0.16666667
   0.00000000  0.83333331  0.50000000
   0.00000000  0.83333331  0.83333331
   0.33333334  0.16666667  0.16666667
   0.33333334  0.16666667  0.50000000
   0.33333334  0.16666667  0.83333331
   0.33333334  0.50000000  0.16666667
   0.33333334  0.50000000  0.50000000
   0.33333334  0.50000000  0.83333331
   0.33333334  0.83333331  0.16666667
   0.33333334  0.83333331  0.50000000
   0.33333334  0.83333331  0.83333331
   0.66666669  0.16666667  0.16666667
   0.66666669  0.16666667  0.50000000
   0.66666669  0.16666667  0.83333331
   0.66666669  0.50000000  0.16666667
   0.66666669  0.50000000  0.50000000
   0.66666669  0.50000000  0.83333331
   0.66666669  0.83333331  0.16666667
   0.66666669  0.83333331  0.50000000
   0.66666669  0.83333331  0.83333331
   0.16666667  0.00000000  0.16666667
   0.16666667  0.00000000  0.50000000
   0.16666667  0.00000000  0.83333331
   0.16666667  0.33333334  0.16666667
   0.16666667  0.33333334  0.50000000
   0.16666667  0.33333334  0.83333331
   0.16666667  0.66666669  0.16666667
   0.16666667  0.66666669  0.50000000
   0.16666667  0.66666669  0.83333331
   0.50000000  0.00000000  0.16666667
   0.50000000  0.00000000  0.50000000
   0.50000000  0.00000000  0.83333331
   0.50000000  0.33333334  0.16666667
   0.50000000  0.33333334  0.50000000
   0.50000000  0.33333334  0.83333331
   0.50000000  0.66666669  0.16666667
   0.50000000  0.66666669  0.50000000
   0.50000000  0.66666669  0.83333331
   0.83333331  0.00000000  0.16666667
   0.83333331  0.00000000  0.50000000
   0.83333331  0.00000000  0.83333331
   0.83333331  0.33333334  0.16666667
   0.83333331  0.33333334  0.50000000
   0.83333331  0.33333334  0.83333331
   0.83333331  0.66666669  0.16666667
   0.83333331  0.66666669  0.50000000
   0.83333331  0.66666669  0.83333331
   0.16666667  0.16666667  0.00000000
   0.16666667  0.16666667  0.33333334
   0.16666667  0.16666667  0.66666669
   0.16666667  0.50000000  0.00000000
   0.16666667  0.50000000  0.33333334
   0.16666667  0.50000000  0.66666669
   0.16666667  0.83333331  0.00000000
   0.16666667  0.83333331  0.33333334
   0.16666667  0.83333331  0.66666669
   0.50000000  0.16666667  0.00000000
   0.50000000  0.16666667  0.33333334
   0.50000000  0.16666667  0.66666669
   0.50000000  0.50000000  0.00000000
   0.50000000  0.50000000  0.33333334
   0.50000000  0.50000000  0.66666669
   0.50000000  0.83333331  0.00000000
   0.50000000  0.83333331  0.33333334
   0.50000000  0.83333331  0.66666669
   0.83333331  0.16666667  0.00000000
   0.83333331  0.16666667  0.33333334
   0.83333331  0.16666667  0.66666669
   0.83333331  0.50000000  0.00000000
   0.83333331  0.50000000  0.33333334
   0.83333331  0.50000000  0.66666669
   0.83333331  0.83333331  0.00000000
   0.83333331  0.83333331  0.33333334
   0.83333331  0.83333331  0.66666669
Direct configuration=     2
   0.00042982  0.00008157 -0.00026828
   0.00028999 -0.00057961  0.33305835
   0.00047817 -0.00027908  0.66681168
   0.00002675  0.33318025  0.00015886
  -0.00012694  0.33338205  0.33358646
  -0.00006131  0.33301643  0.66669013
  -0.00015536  0.66648702 -0.00021087
   0.00022681  0.66620312  0.33333972
  -0.00006556  0.66705078  0.66603929
   0.33340999 -0.00010953  0.00018173
   0.33334482  0.00001363  0.33325676
   0.33327662 -0.00050879  0.66661914
   0.33347061  0.33385449 -0.00003496
   0.33298173  0.33346217  0.33346733
   0.33307977  0.33335608  0.66665465
   0.33325364  0.66662296  0.00026544
   0.33341682  0.66665495  0.33306972
   0.33324921  0.66679751  0.66652944
   0.66687523 -0.00004979 -0.00014748
   0.66667459  0.00000874  0.33358090
   0.66653971 -0.00014570  0.66657903
   0.66634079  0.33363191  0.00035406
   0.66621421  0.33399954  0.33334627
   0.66711182  0.33378056  0.66609597
   0.66646143  0.66663181  0.00020600
   0.66680132  0.66622707  0.33316283
   0.66638385  0.66653971  0.66700325
  -0.00017100  0.16652569  0.16675987
   0.00019889  0.16727871  0.49979971
  -0.00037830  0.16661493  0.83345452
   0.00053363  0.49995887  0.16695072
   0.00004949  0.49973617  0.49996259
   0.00016950  0.49994512  0.83331535
   0.00004217  0.83314097  0.16634866
   0.00044761  0.83334773  0.49976517
   0.00026186  0.83323867  0.83257736
   0.33338991  0.16667126  0.16630946
   0.33333440  0.16709028  0.49976196
   0.33328557  0.16643762  0.83342740
   0.33274415  0.49974427  0.16688620
   0.33336713  0.50012351  0.49995968
   0.33343158  0.50019077  0.83340895
   0.33345889  0.83333861  0.16645600
   0.33346544  0.83344383  0.49989615
   0.33332249  0.83308579  0.83329536
   0.66677334  0.16675866  0.16671488
   0.66630987  0.16662954  0.49972334
   0.66639672  0.16691284  0.83340875
   0.66667696  0.50008860  0.16660059
   0.66649427  0.50011532  0.49986224
   0.66714228  0.50006357  0.83314094
   0.66720727  0.83302244  0.16673922
   0.66664786  0.83375024  0.50015845
   0.66670179  0.83302513  0.83397485
   0.16612335 -0.00040364  0.16691670
   0.16641575  0.00020671  0.50013323
   0.16698017 -0.00016116  0.83343132
   0.16657472  0.33372890  0.16659227
   0.16673689  0.33310818  0.50032049
   0.16685132  0.33352627  0.83360435
   0.16678269  0.66642029  0.16647119
   0.16641491  0.66682601  0.50024946
   0.16656417  0.66671037  0.83331465
   0.50013498 -0.00042782  0.16661850
   0.49968460 -0.00004059  0.50018098
   0.50025620 -0.00018870  0.83304479
   0.49955305  0.33286618  0.16678091
   0.49988003  0.33331287  0.50043237
   0.50008538  0.33327256  0.83330523
   0.49975097  0.66700168  0.16663436
   0.50008563  0.66666826  0.49994822
   0.49998220  0.66644148  0.83383665
   0.83354167  0.00017884  0.16630244
   0.83330321  0.00011750  0.50019672
   0.83301679 -0.00019983  0.83294473
   0.83318448  0.33345943  0.16686845
   0.83375352  0.33371345  0.50001910
   0.83348179  0.33295993  0.83353981
   0.83361182  0.66659729  0.16725834
   0.83345760  0.66622274  0.50002739
   0.83340467  0.66690551  0.83358140
   0.16676871  0.16655939  0.00002039
   0.16694627  0.16662044  0.33311100
   0.16701610  0.16666006  0.66657849
   0.16665655  0.50049259 -0.00025746
   0.16656575  0.50029486  0.33303530
   0.16672255  0.50001090  0.66632365
   0.16651142  0.83322871 -0.00004052
   0.16627203  0.83369477  0.33279183
   0.16637116  0.83334983  0.66656457
   0.49948797  0.16664268  0.00017367
   0.50007147  0.16683166  0.33368304
   0.49972385  0.16680147  0.66642393
   0.50008903  0.49972283  0.00011844
   0.49988740  0.50025939  0.33344300
   0.49987801  0.49981488  0.66678552
   0.49953863  0.83354125 -0.00017651
   0.50065813  0.83384704  0.33339431
   0.49974271  0.83321845  0.66647433
   0.83326120  0.16656992  0.00035816
   0.83356255  0.16667178  0.33360125
   0.83321420  0.16692627  0.66705815
   0.83334203  0.49961866  0.00012339
   0.83327561  0.50038607  0.33338063
   0.83314163  0.50002542  0.66648493
   0.83345080  0.83321400  0.00000958
   0.83371677  0.83337101  0.33327851
   0.83328285  0.83321424  0.66665086
Direct configuration=     3
   0.00085903  0.00016280 -0.00053696
   0.00057911 -0.00115787  0.33278416
   0.00095538 -0.00055700  0.66695623
   0.00005361  0.33302740  0.00031768
  -0.00025342  0.33343081  0.33383893
  -0.00012227  0.33269996  0.66671414
  -0.00031083  0.66630746 -0.00042142
   0.00045373  0.66574032  0.33334625
  -0.00013133  0.66743375  0.66541275
   0.33348631 -0.00021906  0.00036318
   0.33335633  0.00002721  0.33318007
   0.33321981 -0.00101697  0.66657159
   0.33360742  0.33437520 -0.00007009
   0.33263050  0.33359099  0.33360120
   0.33282643  0.33337894  0.66664315
   0.33317416  0.66657907  0.00053064
   0.33350001  0.66664400  0.33280662
   0.33316525  0.66692813  0.66639236
   0.66708322 -0.00009937 -0.00029455
   0.66668303  0.00001770  0.33382784
   0.66641269 -0.00029113  0.66649165
   0.66601513  0.33392993  0.00070773
   0.66576240  0.33466493  0.33335939
   0.66755641  0.33422694  0.66552595
   0.66625661  0.66659664  0.00041230
   0.66693563  0.66578851  0.33299280
   0.66610124  0.66641325  0.66733935
  -0.00034156  0.16638518  0.16685328
   0.00039738  0.16788919  0.49959979
  -0.00075568  0.16656295  0.83357555
   0.00106608  0.49991759  0.16723406
   0.00009941  0.49947244  0.49992541
   0.00033838  0.49989036  0.83329673
   0.00008404  0.83294821  0.16603051
   0.00089413  0.83336234  0.49953031
   0.00052328  0.83314411  0.83182263
   0.33344598  0.16667555  0.16595295
   0.33333537  0.16751307  0.49952412
   0.33323810  0.16620883  0.83352137
   0.33215615  0.49948884  0.16710550
   0.33340068  0.50024702  0.49991926
   0.33352972  0.50038159  0.83348426
   0.33358405  0.83334408  0.16624604
   0.33359685  0.83355402  0.49979154
   0.33331153  0.83283827  0.83325749
   0.66687965  0.16685045  0.16676342
   0.66595388  0.16659290  0.49944707
   0.66612679  0.16715903  0.83348414
   0.66668679  0.50017728  0.16653455
   0.66632176  0.50023071  0.49972480
   0.66761761  0.50012681  0.83294905
   0.66774753  0.83271202  0.16681153
   0.66662955  0.83416603  0.50031666
   0.66673661  0.83271703  0.83461540
   0.16558105 -0.00080651  0.16716590
   0.16616535  0.00041340  0.50026606
   0.16729354 -0.00032204  0.83352920
   0.16648267  0.33412334  0.16651772
   0.16680707  0.33288361  0.50064036
   0.16703570  0.33371874  0.83387506
   0.16689843  0.66617479  0.16627586
   0.16616394  0.66698524  0.50049802
   0.16646172  0.66675402  0.83329555
   0.50027035 -0.00085484  0.16657043
   0.49936918 -0.00008084  0.50036195
   0.50051202 -0.00037707  0.83275642
   0.49910636  0.33239978  0.16689551
   0.49976006  0.33329284  0.50086409
   0.50017088  0.33321177  0.83327680
   0.49950215  0.66733625  0.16660216
   0.50017119  0.66667006  0.49989649
   0.49996430  0.66621640  0.83433949
   0.83374982  0.00035730  0.16593881
   0.83327400  0.00023520  0.50039350
   0.83270060 -0.00039952  0.83255654
   0.83303597  0.33358543  0.16707053
   0.83417274  0.33409292  0.50003780
   0.83362983  0.33258718  0.83374638
   0.83389038  0.66652763  0.16784885
   0.83358141  0.66577982  0.50005471
   0.83347620  0.66714377  0.83382906
   0.16687084  0.16645236  0.00004102
   0.16722543  0.16657432  0.33288845
   0.16736514  0.16665332  0.66649106
   0.16664623  0.50098451 -0.00051486
   0.16646510  0.50058937  0.33273853
   0.16677817  0.50002192  0.66598118
   0.16635625  0.83312401 -0.00008122
   0.16587851  0.83405507  0.33225103
   0.16607665  0.83336627  0.66646239
   0.49897686  0.16661829  0.00034691
   0.50014265  0.16699633  0.33403200
   0.49944797  0.16693619  0.66618169
   0.50017790  0.49944603  0.00023717
   0.49977449  0.50051830  0.33355210
   0.49975608  0.49963020  0.66690439
   0.49907816  0.83374910 -0.00035271
   0.50131560  0.83435988  0.33345526
   0.49948600  0.83310321  0.66628266
   0.83318889  0.16647330  0.00071575
   0.83379120  0.16667685  0.33386900
   0.83309501  0.16718521  0.66744857
   0.83335105  0.49923798  0.00024683
   0.83321813  0.50077133  0.33342772
   0.83295078  0.50005113  0.66630381
   0.83356879  0.83309487  0.00001907
   0.83409977  0.83340870  0.33322425
   0.83323208  0.83309510  0.66663465
Direct configuration=     4
   0.00128671  0.00024335 -0.00080629
   0.00086649 -0.00173361  0.33251146
   0.00143080 -0.00083263  0.66709991
   0.00008071  0.33287500  0.00047651
  -0.00037898  0.33347966  0.33409004
  -0.00018253  0.33238440  0.66673926
  -0.00046656  0.66612813 -0.00063142
   0.00068083  0.66527911  0.33335306
  -0.00019750  0.66781446  0.66478801
   0.33356191 -0.00032870  0.00054417
   0.33336792  0.00004068  0.33310313
   0.33316283 -0.00152379  0.66652407
   0.33374330  0.33489494 -0.00010557
   0.33228000  0.33371988  0.33373488
   0.33257356  0.33340209  0.66663271
   0.33309514  0.66653487  0.00079532
   0.33358268  0.66663461  0.33254457
   0.33308164  0.66705839  0.66625562
   0.66729011 -0.00014856 -0.00044084
   0.66669255  0.00002710  0.33407354
   0.66628557 -0.00043598  0.66640481
   0.66568997  0.33422683  0.00106053
   0.66531188  0.33532877  0.33337288
   0.66799996  0.33467170  0.66495733
   0.66605266  0.66656088  0.00061918
   0.66706925  0.66535202  0.33282372
   0.66581903  0.66628776  0.66767453
  -0.00051127  0.16624565  0.16694711
   0.00059514  0.16849679  0.49940055
  -0.00113118  0.16651053  0.83369623
   0.00159635  0.49987600  0.16751602
   0.00015019  0.49920892  0.49988868
   0.00050610  0.49983579  0.83327678
   0.00012526  0.83275460  0.16571210
   0.00133859  0.83337734  0.49929538
   0.00078375  0.83304977  0.83107052
   0.33350105  0.16667932  0.16559784
   0.33333613  0.16793414  0.49928673
   0.33319120  0.16598054  0.83361512
   0.33157070  0.49923408  0.16732431
   0.33343373  0.50037067  0.49987858
   0.33362764  0.50057250  0.83355890
   0.33370841  0.83334984  0.16603749
   0.33372686  0.83366354  0.49968542
   0.33330036  0.83259080  0.83321979
   0.66698526  0.16694183  0.16681261
   0.66559960  0.16655721  0.49917160
   0.66585691  0.16740525  0.83355946
   0.66669571  0.50026609  0.16646862
   0.66614906  0.50034628  0.49958793
   0.66809226  0.50018937  0.83275814
   0.66828710  0.83240244  0.16688339
   0.66661224  0.83457952  0.50047435
   0.66677081  0.83240914  0.83525406
   0.16504086 -0.00120773  0.16741334
   0.16591601  0.00062011  0.50039807
   0.16760659 -0.00048232  0.83362677
   0.16639043  0.33451552  0.16644291
   0.16687713  0.33266025  0.50095891
   0.16721954  0.33391030  0.83414516
   0.16701362  0.66593104  0.16608083
   0.16591457  0.66714429  0.50074473
   0.16635946  0.66679756  0.83327562
   0.50040651 -0.00128027  0.16652262
   0.49905386 -0.00012040  0.50054280
   0.50076708 -0.00056474  0.83246843
   0.49866031  0.33193501  0.16701081
   0.49964009  0.33327368  0.50129459
   0.50025660  0.33315095  0.83324766
   0.49925379  0.66766992  0.16657022
   0.50025671  0.66667232  0.49984479
   0.49994619  0.66599158  0.83484126
   0.83395752  0.00053495  0.16557643
   0.83324654  0.00035333  0.50059044
   0.83238511 -0.00059886  0.83216921
   0.83288809  0.33371131  0.16727321
   0.83458994  0.33447102  0.50005568
   0.83377703  0.33221575  0.83395312
   0.83416911  0.66645734  0.16843700
   0.83370426  0.66533899  0.50008189
   0.83354812  0.66738093  0.83407592
   0.16697312  0.16634585  0.00006212
   0.16750366  0.16652845  0.33266553
   0.16771338  0.16664622  0.66640511
   0.16663554  0.50147515 -0.00077211
   0.16636502  0.50088307  0.33244440
   0.16683331  0.50003318  0.66563986
   0.16620128  0.83301914 -0.00012229
   0.16548720  0.83441307  0.33171161
   0.16578414  0.83338250  0.66636010
   0.49846748  0.16659312  0.00051931
   0.50021324  0.16716033  0.33437947
   0.49917268  0.16707070  0.66594053
   0.50026639  0.49917003  0.00035645
   0.49966092  0.50077630  0.33366006
   0.49963419  0.49944629  0.66702335
   0.49861934  0.83395672 -0.00052836
   0.50197164  0.83487094  0.33351611
   0.49923048  0.83298726  0.66609234
   0.83311621  0.16637695  0.00107215
   0.83401873  0.16668188  0.33413645
   0.83297566  0.16744281  0.66783692
   0.83336064  0.49885861  0.00037039
   0.83316109  0.50115488  0.33347442
   0.83276163  0.50007745  0.66612400
   0.83368776  0.83297612  0.00002836
   0.83448187  0.83344634  0.33317106
   0.83318066  0.83297585  0.66661767
Direct configuration=     5
   0.00171220  0.00032285 -0.00107659
   0.00115128 -0.00230561  0.33224094
   0.00190361 -0.00110490  0.66724235
   0.00010817  0.33272328  0.00063536
  -0.00050314  0.33352867  0.33433907
  -0.00024174  0.33207022  0.66676607
  -0.00062270  0.66594915 -0.00084062
   0.00090812  0.66482038  0.33336031
  -0.00026431  0.66819180  0.66416593
   0.33363641 -0.00043850  0.00072447
   0.33337960  0.00005397  0.33302583
   0.33310559 -0.00202852  0.66647663
   0.33387770  0.33541314 -0.00014157
   0.33193055  0.33384888  0.33386830
   0.33232138  0.33342568  0.66662385
   0.33301683  0.66649025  0.00105916
   0.33366455  0.66662744  0.33228412
   0.33299854  0.66718810  0.66611931
   0.66749535 -0.00019720 -0.00058602
   0.66670368  0.00003714  0.33431735
   0.66615830 -0.00057998  0.66631880
   0.66536559  0.33452200  0.00141201
   0.66486324  0.33599040  0.33338693
   0.66844193  0.33511406  0.66439074
   0.66585009  0.66652420  0.00082688
   0.66720184  0.66491858  0.33265610
   0.66553740  0.66616367  0.66800838
  -0.00067968  0.16610761  0.16704154
   0.00079186  0.16910018  0.49920226
  -0.00150381  0.16645744  0.83381635
   0.00212340  0.49983394  0.16779596
   0.00020218  0.49894592  0.49985270
   0.00067209  0.49978146  0.83325484
   0.00016551  0.83255974  0.16539337
   0.00178004  0.83339290  0.49906029
   0.00104279  0.83295570  0.83032225
   0.33355460  0.16668229  0.16524477
   0.33333664  0.16835261  0.49905006
   0.33314512  0.16575297  0.83370857
   0.33098904  0.49898030  0.16754239
   0.33346603  0.50049458  0.49983750
   0.33372519  0.50076350  0.83363253
   0.33383161  0.83335605  0.16583103
   0.33385478  0.83377203  0.49957704
   0.33328888  0.83234340  0.83318236
   0.66708979  0.16703258  0.16686278
   0.66524791  0.16652295  0.49889741
   0.66558707  0.16765153  0.83363471
   0.66670330  0.50035509  0.16640286
   0.66597606  0.50046216  0.49945191
   0.66856584  0.50025091  0.83256879
   0.66882573  0.83209410  0.16695456
   0.66659644  0.83498954  0.50063128
   0.66680412  0.83210150  0.83588995
   0.16450379 -0.00160653  0.16765821
   0.16566825  0.00082689  0.50052885
   0.16791921 -0.00064171  0.83372392
   0.16629793  0.33490437  0.16636770
   0.16694701  0.33243874  0.50127545
   0.16740263  0.33410053  0.83441434
   0.16712799  0.66568995  0.16588624
   0.16566764  0.66730298  0.50098864
   0.16625743  0.66684094  0.83325440
   0.50054389 -0.00170342  0.16647519
   0.49873875 -0.00015893  0.50072345
   0.50102112 -0.00075146  0.83218093
   0.49821529  0.33147263  0.16712718
   0.49952006  0.33325578  0.50172332
   0.50034264  0.33309009  0.83321749
   0.49900619  0.66800226  0.16653865
   0.50034222  0.66667530  0.49979311
   0.49992773  0.66576723  0.83534137
   0.83416452  0.00071131  0.16521600
   0.83322166  0.00047207  0.50078768
   0.83207071 -0.00079775  0.83178325
   0.83274119  0.33383702  0.16747671
   0.83500408  0.33484714  0.50007232
   0.83392303  0.33184628  0.83416017
   0.83444811  0.66638614  0.16902163
   0.83382563  0.66490139  0.50010887
   0.83362061  0.66761644  0.83432159
   0.16707562  0.16624011  0.00008393
   0.16778049  0.16648293  0.33244203
   0.16806044  0.16663857  0.66632136
   0.16662430  0.50196395 -0.00102923
   0.16626582  0.50117551  0.33215424
   0.16688770  0.50004479  0.66530031
   0.16604655  0.83291398 -0.00016390
   0.16509926  0.83476754  0.33117430
   0.16549462  0.83339843  0.66625764
   0.49796061  0.16656686  0.00069048
   0.50028295  0.16732332  0.33472465
   0.49889824  0.16720482  0.66570099
   0.50035429  0.49889539  0.00047650
   0.49954632  0.50103299  0.33376630
   0.49951233  0.49926354  0.66714242
   0.49816290  0.83416402 -0.00070324
   0.50262560  0.83537935  0.33357683
   0.49897677  0.83287023  0.66590410
   0.83304298  0.16628105  0.00142673
   0.83424457  0.16668683  0.33440350
   0.83285605  0.16769848  0.66822219
   0.83337105  0.49848112  0.00049415
   0.83310470  0.50153574  0.33352054
   0.83257506  0.50010464  0.66594620
   0.83380818  0.83285792  0.00003738
   0.83486268  0.83348389  0.33311950
   0.83312826  0.83285644  0.66659957
Direct configuration=     6
   0.00213484  0.00040102 -0.00134820
   0.00143261 -0.00287264  0.33197328
   0.00237298 -0.00137275  0.66738321
   0.00013613  0.33257244  0.00079429
  -0.00062544  0.33357790  0.33458534
  -0.00029955  0.33175792  0.66679511
  -0.00077942  0.66577063 -0.00104883
   0.00113566  0.66436495  0.33336815
  -0.00033203  0.66856472  0.66354736
   0.33370942 -0.00054853  0.00090389
   0.33339144  0.00006702  0.33294806
   0.33304796 -0.00253052  0.66642927
   0.33401021  0.33592936 -0.00017824
   0.33158251  0.33397807  0.33400144
   0.33207013  0.33344990  0.66661707
   0.33293947  0.66644505  0.00132183
   0.33374537  0.66662318  0.33202577
   0.33291612  0.66731700  0.66598357
   0.66769842 -0.00024512 -0.00072980
   0.66671694  0.00004808  0.33455861
   0.66603084 -0.00072278  0.66623387
   0.66504222  0.33481491  0.00176183
   0.66441703  0.33664912  0.33340170
   0.66888179  0.33555327  0.66382676
   0.66564931  0.66648631  0.00103564
   0.66733303  0.66448911  0.33249032
   0.66525650  0.66604145  0.66834047
  -0.00084632  0.16597155  0.16713677
   0.00098727  0.16969803  0.49900522
  -0.00187266  0.16640347  0.83393578
   0.00264620  0.49979125  0.16807325
   0.00025581  0.49868369  0.49981770
   0.00083583  0.49972741  0.83323028
   0.00020440  0.83236316  0.16507416
   0.00221753  0.83340918  0.49882489
   0.00129993  0.83286194  0.82957909
   0.33360611  0.16668420  0.16489439
   0.33333679  0.16876761  0.49881432
   0.33310015  0.16552633  0.83380160
   0.33041240  0.49872784  0.16775945
   0.33349731  0.50061882  0.49979592
   0.33382223  0.50095459  0.83370482
   0.33395325  0.83336285  0.16562736
   0.33397991  0.83387915  0.49946566
   0.33327700  0.83209609  0.83314530
   0.66719289  0.16712252  0.16691425
   0.66489963  0.16649053  0.49862490
   0.66531723  0.16789791  0.83370986
   0.66670911  0.50044438  0.16633732
   0.66580268  0.50057846  0.49931703
   0.66903805  0.50031107  0.83238154
   0.66936308  0.83178739  0.16702477
   0.66658261  0.83539496  0.50078717
   0.66683624  0.83179422  0.83652221
   0.16397082 -0.00200210  0.16789963
   0.16542256  0.00103385  0.50065804
   0.16823118 -0.00079990  0.83382046
   0.16620507  0.33528885  0.16629196
   0.16701666  0.33221968  0.50158929
   0.16758478  0.33428904  0.83468235
   0.16724128  0.66545237  0.16569223
   0.16542395  0.66746120  0.50122882
   0.16615570  0.66688412  0.83323149
   0.50068288 -0.00212364  0.16642827
   0.49842386 -0.00019606  0.50090384
   0.50127389 -0.00093696  0.83189402
   0.49777159  0.33101340  0.16724497
   0.49939994  0.33323952  0.50214979
   0.50042907  0.33302919  0.83318594
   0.49875964  0.66833283  0.16650756
   0.50042773  0.66667924  0.49974144
   0.49990884  0.66554345  0.83583938
   0.83437056  0.00088600  0.16485811
   0.83320018  0.00059164  0.50098533
   0.83175779 -0.00099603  0.83139907
   0.83259554  0.33396253  0.16768135
   0.83541425  0.33522065  0.50008737
   0.83406746  0.33147944  0.83436765
   0.83472751  0.66631376  0.16960164
   0.83394500  0.66446803  0.50013559
   0.83369390  0.66784981  0.83456573
   0.16717839  0.16613540  0.00010666
   0.16805553  0.16643788  0.33221774
   0.16840597  0.16663014  0.66624053
   0.16661235  0.50245032 -0.00128623
   0.16616781  0.50146626  0.33186939
   0.16694107  0.50005686  0.66496309
   0.16589222  0.83280848 -0.00020623
   0.16471571  0.83511737  0.33063976
   0.16520903  0.83341395  0.66615495
   0.49745699  0.16653912  0.00086005
   0.50035144  0.16748495  0.33506685
   0.49862496  0.16733842  0.66546362
   0.50044140  0.49862253  0.00059757
   0.49943033  0.50128803  0.33387026
   0.49939048  0.49908223  0.66726166
   0.49770957  0.83437088 -0.00087711
   0.50327685  0.83588430  0.33363739
   0.49872553  0.83275180  0.66571863
   0.83296902  0.16618576  0.00177888
   0.83446825  0.16669164  0.33467004
   0.83273611  0.16795160  0.66860343
   0.83338254  0.49810603  0.00061818
   0.83304918  0.50191303  0.33356589
   0.83239192  0.50013303  0.66577105
   0.83393048  0.83274048  0.00004605
   0.83524182  0.83352137  0.33307008
   0.83307457  0.83273683  0.66657997
Direct configuration=     7
   0.00255400  0.00047752 -0.00162147
   0.00170959 -0.00343352  0.33170918
   0.00283815 -0.00163512  0.66752214
   0.00016473  0.33242264  0.00095338
  -0.00074537  0.33362735  0.33482811
  -0.00035561  0.33144797  0.66682690
  -0.00093692  0.66559268 -0.00125588
   0.00136354  0.66391354  0.33337672
  -0.00040084  0.66893215  0.66293302
   0.33378056 -0.00065885  0.00108228
   0.33340345  0.00007977  0.33286970
   0.33298989 -0.00302922  0.66638205
   0.33414039  0.33644312 -0.00021573
   0.33123618  0.33410750  0.33413423
   0.33181999  0.33347492  0.66661288
   0.33286328  0.66639912  0.00158304
   0.33382489  0.66662250  0.33176998
   0.33283451  0.66744496  0.66584852
   0.66789889 -0.00029217 -0.00087190
   0.66673287  0.00006016  0.33479677
   0.66590315 -0.00086411  0.66615023
   0.66472007  0.33510501  0.00210960
   0.66397377  0.33730432  0.33341731
   0.66931914  0.33598868  0.66326589
   0.66545078  0.66644692  0.00124572
   0.66746250  0.66406454  0.33232680
   0.66497646  0.66592156  0.66867040
  -0.00101074  0.16583797  0.16723296
   0.00118108  0.17028911  0.49880970
  -0.00223690  0.16634840  0.83405438
   0.00316377  0.49974778  0.16834727
   0.00031154  0.49842239  0.49978391
   0.00099683  0.49967370  0.83320251
   0.00024162  0.83216443  0.16475428
   0.00265017  0.83342634  0.49858908
   0.00155469  0.83276855  0.82884225
   0.33365508  0.16668479  0.16454730
   0.33333647  0.16917838  0.49857974
   0.33305654  0.16530078  0.83389412
   0.32984194  0.49847709  0.16797524
   0.33352734  0.50074352  0.49975369
   0.33391865  0.50114578  0.83377546
   0.33407295  0.83337039  0.16542712
   0.33410155  0.83398457  0.49935061
   0.33326462  0.83184880  0.83310871
   0.66729423  0.16721146  0.16696737
   0.66455553  0.16646037  0.49835441
   0.66504736  0.16814441  0.83378492
   0.66671274  0.50053403  0.16627204
   0.66562877  0.50069533  0.49918350
   0.66950865  0.50036952  0.83219690
   0.66989890  0.83148273  0.16709382
   0.66657127  0.83579476  0.50094181
   0.66686689  0.83148732  0.83715011
   0.16344281 -0.00239372  0.16813673
   0.16517944  0.00124109  0.50078529
   0.16854240 -0.00095661  0.83391627
   0.16611173  0.33566790  0.16621554
   0.16708604  0.33200367  0.50189978
   0.16776575  0.33447541  0.83494897
   0.16735325  0.66521912  0.16549887
   0.16518422  0.66761885  0.50146446
   0.16605429  0.66692706  0.83320646
   0.50082388 -0.00254030  0.16638197
   0.49810914 -0.00023147  0.50108398
   0.50152514 -0.00112100  0.83160781
   0.49732948  0.33055804  0.16736451
   0.49927971  0.33322529  0.50257354
   0.50051599  0.33296823  0.83315269
   0.49851440  0.66866123  0.16647709
   0.50051326  0.66668439  0.49968977
   0.49988939  0.66532031  0.83633484
   0.83457551  0.00105859  0.16450334
   0.83318288  0.00071225  0.50118356
   0.83144664 -0.00119356  0.83101704
   0.83245141  0.33408781  0.16788743
   0.83581947  0.33559098  0.50010042
   0.83420994  0.33111585  0.83457572
   0.83500744  0.66623992  0.17017600
   0.83406194  0.66403985  0.50016197
   0.83376815  0.66808055  0.83480802
   0.16728147  0.16603197  0.00013055
   0.16832836  0.16639341  0.33199246
   0.16874965  0.16662075  0.66616327
   0.16659956  0.50293374 -0.00154310
   0.16607126  0.50175497  0.33159111
   0.16699320  0.50006950  0.66462879
   0.16573836  0.83270250 -0.00024943
   0.16433758  0.83546145  0.33010864
   0.16492833  0.83342897  0.66605198
   0.49695735  0.16650959  0.00102759
   0.50041837  0.16764495  0.33540538
   0.49835300  0.16747136  0.66522888
   0.50052755  0.49835182  0.00071995
   0.49931255  0.50154107  0.33397140
   0.49926862  0.49890268  0.66738117
   0.49726001  0.83457715 -0.00104977
   0.50392486  0.83638504  0.33369779
   0.49847732  0.83263163  0.66553654
   0.83289418  0.16609121  0.00212799
   0.83468925  0.16669627  0.33493599
   0.83261575  0.16820158  0.66897968
   0.83339535  0.49773384  0.00074258
   0.83299471  0.50228588  0.33361035
   0.83221304  0.50016288  0.66559923
   0.83405510  0.83262397  0.00005428
   0.83561894  0.83355876  0.33302335
   0.83301928  0.83261694  0.66655848
Direct configuration=     8
   0.00296916  0.00055208 -0.00189681
   0.00198136 -0.00398710  0.33144933
   0.00329840 -0.00189094  0.66765881
   0.00019408  0.33227403  0.00111271
  -0.00086251  0.33367713  0.33506664
  -0.00040961  0.33114076  0.66686204
  -0.00109534  0.66541541 -0.00146161
   0.00159190  0.66346692  0.33338617
  -0.00047107  0.66929308  0.66232363
   0.33384947 -0.00076956  0.00125948
   0.33341570  0.00009216  0.33279062
   0.33293130 -0.00352406  0.66633501
   0.33426782  0.33695406 -0.00025423
   0.33089182  0.33423725  0.33426664
   0.33157114  0.33350087  0.66661177
   0.33278852  0.66635231  0.00184252
   0.33390291  0.66662607  0.33151722
   0.33275385  0.66757183  0.66571422
   0.66809636 -0.00033818 -0.00101205
   0.66675204  0.00007360  0.33503121
   0.66577521 -0.00100363  0.66606814
   0.66439932  0.33539182  0.00245497